ITEM: TIMESTEP
0
ITEM: NUMBER OF ATOMS
7701
ITEM: BOX BOUNDS pp pp pp 
0.0 695.863879
0.0 696.538988
0.0 698.088957
ITEM: ATOMS id x y z tbx tby tbz sbx sby sbz loop
    0  161.7603060  361.4290787  249.6142828  -0.5000  -0.5000  -0.5000   -1.5785436   -1.5800663   -1.5832548   1
    0  160.6366041  361.9253671  249.7412110  -0.5000  -0.5000  -0.5000   -1.5785436   -1.5800663   -1.5832548   1
    0  159.7646873  362.6825065  248.4984128  -0.5000  -0.5000  -0.5000   -1.5785436   -1.5800663   -1.5832548   1
    0  159.4608933  363.9275287  246.9786253  -0.5000  -0.5000  -0.5000   -1.5785436   -1.5800663   -1.5832548   1
    0  159.3810564  365.9731873  245.6493648  -0.5000  -0.5000  -0.5000   -1.5785436   -1.5800663   -1.5832548   1
    0  158.6437858  368.0803153  244.1500400  -0.5000  -0.5000  -0.5000   -1.5785436   -1.5800663   -1.5832548   1
    0  157.7635044  369.9524660  243.4374251  -0.5000  -0.5000  -0.5000   -1.5785436   -1.5800663   -1.5832548   1
    0  157.3580521  371.7738346  244.0569228  -0.5000  -0.5000  -0.5000   -1.5785436   -1.5800663   -1.5832548   1
    0  156.6576096  373.2562985  245.3258594  -0.5000  -0.5000  -0.5000   -1.5785436   -1.5800663   -1.5832548   1
    0  155.7290443  374.6328035  246.5361848  -0.5000  -0.5000  -0.5000   -1.5785436   -1.5800663   -1.5832548   1
    0  153.9344339  375.8132913  247.3255449  -0.5000  -0.5000  -0.5000   -1.5785436   -1.5800663   -1.5832548   1
    0  151.3588170  376.1129070  248.1697749  -0.5000  -0.5000  -0.5000   -1.5785436   -1.5800663   -1.5832548   1
    0  150.0751324  375.4730891  249.6403165  -0.5000  -0.5000  -0.5000   -1.5785436   -1.5800663   -1.5832548   1
    0  150.0740034  374.1197054  251.3395208  -0.5000  -0.5000  -0.5000   -1.5785436   -1.5800663   -1.5832548   1
    0  150.0212758  372.3709264  252.7944589  -0.5000  -0.5000  -0.5000   -1.5785436   -1.5800663   -1.5832548   1
    0  150.0380520  370.5938555  254.0381517  -0.5000  -0.5000  -0.5000   -1.5785436   -1.5800663   -1.5832548   1
    0  150.6144424  368.8468175  255.0902717  -0.5000  -0.5000  -0.5000   -1.5785436   -1.5800663   -1.5832548   1
    0  152.1118655  367.2727194  255.6302175  -0.5000  -0.5000  -0.5000   -1.5785436   -1.5800663   -1.5832548   1
    0  154.3285450  366.3435315  255.4873612  -0.5000  -0.5000  -0.5000   -1.5785436   -1.5800663   -1.5832548   1
    0  156.0954121  365.1179045  254.8424149  -0.5000  -0.5000  -0.5000   -1.5785436   -1.5800663   -1.5832548   1
    0  157.5013992  363.2276814  254.0866369  -0.5000  -0.5000  -0.5000   -1.5785436   -1.5800663   -1.5832548   1
    0  158.6124952  361.8514787  253.1716597  -0.5000  -0.5000  -0.5000   -1.5785436   -1.5800663   -1.5832548   1
    0  158.9971761  361.2382742  252.0058883  -0.5000  -0.5000  -0.5000   -1.5785436   -1.5800663   -1.5832548   1
    0  159.8675578  361.1414738  250.8587084  -0.5000  -0.5000  -0.5000   -1.5785436   -1.5800663   -1.5832548   1
    0  161.7603059  361.4290787  249.6142829  -0.5000  -0.5000  -0.5000   -1.5785436   -1.5800663   -1.5832548   1
    1  565.7545625  511.2129166  578.1941042   0.5000   0.5000  -0.5000    1.5827337    1.5842674   -1.5809085   0
    1  563.7899187  513.8344358  580.3939693   0.5000   0.5000  -0.5000    1.5827337    1.5842674   -1.5809085   0
    1  563.3583951  515.5448069  582.1365229   0.5000   0.5000  -0.5000    1.5827337    1.5842674   -1.5809085   0
    1  563.1843488  516.7203859  583.5563221   0.5000   0.5000  -0.5000    1.5827337    1.5842674   -1.5809085   0
    1  562.2189239  518.0317429  584.2570604   0.5000   0.5000  -0.5000    1.5827337    1.5842674   -1.5809085   0
    1  560.4304286  519.3519976  584.1978893   0.5000   0.5000  -0.5000    1.5827337    1.5842674   -1.5809085   0
    1  558.9730052  520.6600640  584.1117998   0.5000   0.5000  -0.5000    1.5827337    1.5842674   -1.5809085   0
    1  558.5148956  521.8243169  584.9273649   0.5000   0.5000  -0.5000    1.5827337    1.5842674   -1.5809085   0
    1  558.3251745  522.8292911  587.0137361   0.5000   0.5000  -0.5000    1.5827337    1.5842674   -1.5809085   0
    1  557.8859948  524.2368835  588.9038950   0.5000   0.5000  -0.5000    1.5827337    1.5842674   -1.5809085   0
    1  556.7286377  525.8225481  589.3116711   0.5000   0.5000  -0.5000    1.5827337    1.5842674   -1.5809085   0
    1  555.2804676  527.2814904  588.8015854   0.5000   0.5000  -0.5000    1.5827337    1.5842674   -1.5809085   0
    1  553.9206264  528.8107254  588.3092145   0.5000   0.5000  -0.5000    1.5827337    1.5842674   -1.5809085   0
    1  551.9088851  530.1066494  587.8504331   0.5000   0.5000  -0.5000    1.5827337    1.5842674   -1.5809085   0
    1  549.3080121  530.9655450  587.3401978   0.5000   0.5000  -0.5000    1.5827337    1.5842674   -1.5809085   0
    1  547.3649013  532.8823841  586.8643508   0.5000   0.5000  -0.5000    1.5827337    1.5842674   -1.5809085   0
    1  546.6081732  535.2226969  585.9117318   0.5000   0.5000  -0.5000    1.5827337    1.5842674   -1.5809085   0
    1  546.3663823  535.3338797  583.9650415   0.5000   0.5000  -0.5000    1.5827337    1.5842674   -1.5809085   0
    1  546.2818724  533.9467992  582.0428037   0.5000   0.5000  -0.5000    1.5827337    1.5842674   -1.5809085   0
    1  546.6405882  532.9462020  580.5267626   0.5000   0.5000  -0.5000    1.5827337    1.5842674   -1.5809085   0
    1  547.3292256  532.8962479  578.3105543   0.5000   0.5000  -0.5000    1.5827337    1.5842674   -1.5809085   0
    1  547.8362308  532.8890763  575.7799739   0.5000   0.5000  -0.5000    1.5827337    1.5842674   -1.5809085   0
    1  548.4208162  532.1545268  573.4809802   0.5000   0.5000  -0.5000    1.5827337    1.5842674   -1.5809085   0
    1  549.2664507  531.1187720  571.2233836   0.5000   0.5000  -0.5000    1.5827337    1.5842674   -1.5809085   0
    1  549.6142505  530.0094185  569.2877429   0.5000   0.5000  -0.5000    1.5827337    1.5842674   -1.5809085   0
    1  550.3524258  529.3125390  568.1875041   0.5000   0.5000  -0.5000    1.5827337    1.5842674   -1.5809085   0
    1  552.4420460  528.7327114  567.9295434   0.5000   0.5000  -0.5000    1.5827337    1.5842674   -1.5809085   0
    1  554.3592931  527.6576867  567.4321701   0.5000   0.5000  -0.5000    1.5827337    1.5842674   -1.5809085   0
    1  555.1608209  526.2047567  566.3436585   0.5000   0.5000  -0.5000    1.5827337    1.5842674   -1.5809085   0
    1  555.2717687  524.5582288  565.2097064   0.5000   0.5000  -0.5000    1.5827337    1.5842674   -1.5809085   0
    1  555.2500746  523.0837136  564.0269854   0.5000   0.5000  -0.5000    1.5827337    1.5842674   -1.5809085   0
    1  555.7585510  521.6955972  563.1489697   0.5000   0.5000  -0.5000    1.5827337    1.5842674   -1.5809085   0
    1  556.9931477  520.6968353  562.3883851   0.5000   0.5000  -0.5000    1.5827337    1.5842674   -1.5809085   0
    1  557.8475166  520.1518380  561.2407172   0.5000   0.5000  -0.5000    1.5827337    1.5842674   -1.5809085   0
    1  557.6859632  519.4870371  560.0164753   0.5000   0.5000  -0.5000    1.5827337    1.5842674   -1.5809085   0
    1  557.6751829  518.7111141  558.5536303   0.5000   0.5000  -0.5000    1.5827337    1.5842674   -1.5809085   0
    1  557.9839055  517.5046922  556.6780767   0.5000   0.5000  -0.5000    1.5827337    1.5842674   -1.5809085   0
    1  557.8118046  515.9172648  554.7152352   0.5000   0.5000  -0.5000    1.5827337    1.5842674   -1.5809085   0
    1  557.7065157  514.8346433  552.8329175   0.5000   0.5000  -0.5000    1.5827337    1.5842674   -1.5809085   0
    1  557.7972826  514.5787279  550.4717007   0.5000   0.5000  -0.5000    1.5827337    1.5842674   -1.5809085   0
    1  557.6630368  513.9862816  547.6266715   0.5000   0.5000  -0.5000    1.5827337    1.5842674   -1.5809085   0
    1  557.7268874  512.3515202  545.6003590   0.5000   0.5000  -0.5000    1.5827337    1.5842674   -1.5809085   0
    1  558.8271419  510.9908159  544.8159584   0.5000   0.5000  -0.5000    1.5827337    1.5842674   -1.5809085   0
    1  560.6293142  509.8265736  544.7267714   0.5000   0.5000  -0.5000    1.5827337    1.5842674   -1.5809085   0
    1  562.2182220  508.1634964  544.8404482   0.5000   0.5000  -0.5000    1.5827337    1.5842674   -1.5809085   0
    1  563.8221495  507.2012434  545.6336488   0.5000   0.5000  -0.5000    1.5827337    1.5842674   -1.5809085   0
    1  565.2675177  506.9024815  547.3609453   0.5000   0.5000  -0.5000    1.5827337    1.5842674   -1.5809085   0
    1  566.4448318  506.3814917  549.0624509   0.5000   0.5000  -0.5000    1.5827337    1.5842674   -1.5809085   0
    1  567.3420348  505.8937406  550.9413041   0.5000   0.5000  -0.5000    1.5827337    1.5842674   -1.5809085   0
    1  567.7747755  505.7232885  553.1766529   0.5000   0.5000  -0.5000    1.5827337    1.5842674   -1.5809085   0
    1  567.9516330  505.7820989  555.1814803   0.5000   0.5000  -0.5000    1.5827337    1.5842674   -1.5809085   0
    1  567.5930036  506.2620945  556.9105665   0.5000   0.5000  -0.5000    1.5827337    1.5842674   -1.5809085   0
    1  566.9957408  507.4758953  558.2353482   0.5000   0.5000  -0.5000    1.5827337    1.5842674   -1.5809085   0
    1  567.0253508  508.7185415  559.7437223   0.5000   0.5000  -0.5000    1.5827337    1.5842674   -1.5809085   0
    1  567.8370780  508.9423628  561.8156862   0.5000   0.5000  -0.5000    1.5827337    1.5842674   -1.5809085   0
    1  569.0141962  508.4593798  563.9280966   0.5000   0.5000  -0.5000    1.5827337    1.5842674   -1.5809085   0
    1  570.1943750  507.8647242  565.8032981   0.5000   0.5000  -0.5000    1.5827337    1.5842674   -1.5809085   0
    1  571.2006855  507.1094553  567.4695806   0.5000   0.5000  -0.5000    1.5827337    1.5842674   -1.5809085   0
    1  571.4548223  506.7269541  570.1054184   0.5000   0.5000  -0.5000    1.5827337    1.5842674   -1.5809085   0
    1  570.8358411  507.0772016  573.5653023   0.5000   0.5000  -0.5000    1.5827337    1.5842674   -1.5809085   0
    1  569.9758264  507.8415007  575.7258362   0.5000   0.5000  -0.5000    1.5827337    1.5842674   -1.5809085   0
    1  568.5753553  509.1539205  576.7555481   0.5000   0.5000  -0.5000    1.5827337    1.5842674   -1.5809085   0
    1  565.7545625  511.2129166  578.1941042   0.5000   0.5000  -0.5000    1.5827337    1.5842674   -1.5809085   0
    2  515.0723979  616.4784675  417.9431946  -0.5000   0.5000  -0.5000   -1.5814673    1.5841039   -1.5806234   1
    2  517.2943143  614.9743122  417.8307389  -0.5000   0.5000  -0.5000   -1.5814673    1.5841039   -1.5806234   1
    2  519.0328275  612.9879340  417.9451999  -0.5000   0.5000  -0.5000   -1.5814673    1.5841039   -1.5806234   1
    2  519.3144123  610.8319994  417.8196528  -0.5000   0.5000  -0.5000   -1.5814673    1.5841039   -1.5806234   1
    2  518.9436230  608.5900291  417.1550215  -0.5000   0.5000  -0.5000   -1.5814673    1.5841039   -1.5806234   1
    2  519.2056274  606.9697922  415.7775121  -0.5000   0.5000  -0.5000   -1.5814673    1.5841039   -1.5806234   1
    2  519.8391151  606.0243799  414.2417725  -0.5000   0.5000  -0.5000   -1.5814673    1.5841039   -1.5806234   1
    2  520.6158154  605.2324175  412.8228250  -0.5000   0.5000  -0.5000   -1.5814673    1.5841039   -1.5806234   1
    2  521.8176097  604.8597045  411.4347510  -0.5000   0.5000  -0.5000   -1.5814673    1.5841039   -1.5806234   1
    2  523.0883057  605.6771161  410.2794683  -0.5000   0.5000  -0.5000   -1.5814673    1.5841039   -1.5806234   1
    2  524.3430170  607.4884842  409.7178267  -0.5000   0.5000  -0.5000   -1.5814673    1.5841039   -1.5806234   1
    2  525.2861830  609.7828909  409.5296306  -0.5000   0.5000  -0.5000   -1.5814673    1.5841039   -1.5806234   1
    2  525.5763868  611.9147011  410.2705504  -0.5000   0.5000  -0.5000   -1.5814673    1.5841039   -1.5806234   1
    2  525.4198423  612.8369782  412.3026600  -0.5000   0.5000  -0.5000   -1.5814673    1.5841039   -1.5806234   1
    2  524.8597720  613.2079897  414.3699946  -0.5000   0.5000  -0.5000   -1.5814673    1.5841039   -1.5806234   1
    2  523.8182828  613.5468972  415.6350601  -0.5000   0.5000  -0.5000   -1.5814673    1.5841039   -1.5806234   1
    2  522.2432342  613.5021115  416.3759988  -0.5000   0.5000  -0.5000   -1.5814673    1.5841039   -1.5806234   1
    2  520.0641835  613.6404368  417.2424022  -0.5000   0.5000  -0.5000   -1.5814673    1.5841039   -1.5806234   1
    2  516.9325626  614.2923186  417.9471591  -0.5000   0.5000  -0.5000   -1.5814673    1.5841039   -1.5806234   1
    2  514.8247646  615.2809309  418.1507608  -0.5000   0.5000  -0.5000   -1.5814673    1.5841039   -1.5806234   1
    2  515.0723979  616.4784676  417.9431947  -0.5000   0.5000  -0.5000   -1.5814673    1.5841039   -1.5806234   1
    3  522.9594285  504.8399999  519.8760715   0.5000   0.5000  -0.5000    1.5827337    1.5842674   -1.5809085   0
    3  524.4365766  503.0719028  519.7613676   0.5000   0.5000  -0.5000    1.5827337    1.5842674   -1.5809085   0
    3  525.3708133  502.1639429  520.6648170   0.5000   0.5000  -0.5000    1.5827337    1.5842674   -1.5809085   0
    3  525.8481290  502.1900348  522.5141426   0.5000   0.5000  -0.5000    1.5827337    1.5842674   -1.5809085   0
    3  526.1610067  502.6273653  524.5048072   0.5000   0.5000  -0.5000    1.5827337    1.5842674   -1.5809085   0
    3  526.4526242  503.0371066  526.1898714   0.5000   0.5000  -0.5000    1.5827337    1.5842674   -1.5809085   0
    3  527.3028404  503.5468922  527.9052865   0.5000   0.5000  -0.5000    1.5827337    1.5842674   -1.5809085   0
    3  528.8065875  503.8214641  529.5955121   0.5000   0.5000  -0.5000    1.5827337    1.5842674   -1.5809085   0
    3  530.2262204  503.7231426  531.4865597   0.5000   0.5000  -0.5000    1.5827337    1.5842674   -1.5809085   0
    3  530.3088371  503.9938860  533.9323141   0.5000   0.5000  -0.5000    1.5827337    1.5842674   -1.5809085   0
    3  529.2150901  504.6184863  535.9193374   0.5000   0.5000  -0.5000    1.5827337    1.5842674   -1.5809085   0
    3  528.0742193  505.2302439  537.2676644   0.5000   0.5000  -0.5000    1.5827337    1.5842674   -1.5809085   0
    3  526.8405325  506.1367805  538.2971229   0.5000   0.5000  -0.5000    1.5827337    1.5842674   -1.5809085   0
    3  525.3798033  506.6227373  538.2711000   0.5000   0.5000  -0.5000    1.5827337    1.5842674   -1.5809085   0
    3  523.6621189  506.4478057  537.2960588   0.5000   0.5000  -0.5000    1.5827337    1.5842674   -1.5809085   0
    3  521.9371879  507.0306292  536.7082475   0.5000   0.5000  -0.5000    1.5827337    1.5842674   -1.5809085   0
    3  521.4352887  508.4497043  536.9837973   0.5000   0.5000  -0.5000    1.5827337    1.5842674   -1.5809085   0
    3  521.7547454  509.9190706  537.6501855   0.5000   0.5000  -0.5000    1.5827337    1.5842674   -1.5809085   0
    3  521.1714993  511.2722640  538.9945582   0.5000   0.5000  -0.5000    1.5827337    1.5842674   -1.5809085   0
    3  519.8440211  512.0516433  541.0945201   0.5000   0.5000  -0.5000    1.5827337    1.5842674   -1.5809085   0
    3  519.3159920  512.3308129  543.0187718   0.5000   0.5000  -0.5000    1.5827337    1.5842674   -1.5809085   0
    3  519.7516821  513.1935329  546.1588366   0.5000   0.5000  -0.5000    1.5827337    1.5842674   -1.5809085   0
    3  519.9195834  514.7698524  552.4630642   0.5000   0.5000  -0.5000    1.5827337    1.5842674   -1.5809085   0
    4  687.1869500  418.4586334  403.0110834  -0.5000  -0.5000   0.5000   -1.5827337   -1.5842674    1.5809085   0
    4  685.6880046  421.9556230  401.3867495  -0.5000  -0.5000   0.5000   -1.5827337   -1.5842674    1.5809085   0
    4  684.7570550  423.3944088  401.2720883  -0.5000  -0.5000   0.5000   -1.5827337   -1.5842674    1.5809085   0
    4  684.0558984  424.6070022  402.5295373  -0.5000  -0.5000   0.5000   -1.5827337   -1.5842674    1.5809085   0
    4  683.3192955  426.0958252  404.3864727  -0.5000  -0.5000   0.5000   -1.5827337   -1.5842674    1.5809085   0
    4  682.0636029  427.2240098  405.8350490  -0.5000  -0.5000   0.5000   -1.5827337   -1.5842674    1.5809085   0
    4  680.5922335  428.6762794  406.6561512  -0.5000  -0.5000   0.5000   -1.5827337   -1.5842674    1.5809085   0
    4  680.0627883  430.8288282  406.8609781  -0.5000  -0.5000   0.5000   -1.5827337   -1.5842674    1.5809085   0
    4  680.4539553  432.6452544  406.9786919  -0.5000  -0.5000   0.5000   -1.5827337   -1.5842674    1.5809085   0
    4  680.7811126  432.9824208  408.2180019  -0.5000  -0.5000   0.5000   -1.5827337   -1.5842674    1.5809085   0
    4  680.8135643  432.6987694  410.2245692  -0.5000  -0.5000   0.5000   -1.5827337   -1.5842674    1.5809085   0
    4  681.3641876  432.5245412  412.5204689  -0.5000  -0.5000   0.5000   -1.5827337   -1.5842674    1.5809085   0
    4  682.5091165  431.4699728  415.0194194  -0.5000  -0.5000   0.5000   -1.5827337   -1.5842674    1.5809085   0
    4  683.8894390  430.2175827  416.9533239  -0.5000  -0.5000   0.5000   -1.5827337   -1.5842674    1.5809085   0
    4  685.5278224  429.4146380  418.1479541  -0.5000  -0.5000   0.5000   -1.5827337   -1.5842674    1.5809085   0
    4  686.5886463  428.1170538  418.6790510  -0.5000  -0.5000   0.5000   -1.5827337   -1.5842674    1.5809085   0
    4  687.6825081  426.5283369  418.0698114  -0.5000  -0.5000   0.5000   -1.5827337   -1.5842674    1.5809085   0
    4  690.8551613  425.0928906  416.4229095  -0.5000  -0.5000   0.5000   -1.5827337   -1.5842674    1.5809085   0
    5  653.8205802  683.7719728    0.7812915   0.5000   0.5000  -0.5000    1.5827337    1.5842674   -1.5809085   1
    5  653.7214596  683.6990679    2.1987149   0.5000   0.5000  -0.5000    1.5827337    1.5842674   -1.5809085   1
    5  653.1663035  684.6888034    3.4410915   0.5000   0.5000  -0.5000    1.5827337    1.5842674   -1.5809085   1
    5  652.4166784  686.9226421    4.0298467   0.5000   0.5000  -0.5000    1.5827337    1.5842674   -1.5809085   1
    5  651.8306471  689.2029462    4.5409087   0.5000   0.5000  -0.5000    1.5827337    1.5842674   -1.5809085   1
    5  650.3806520  690.6475662    4.4512750   0.5000   0.5000  -0.5000    1.5827337    1.5842674   -1.5809085   1
    5  648.3247581  690.7757531    3.5506741   0.5000   0.5000  -0.5000    1.5827337    1.5842674   -1.5809085   1
    5  646.5856233  689.8339535    2.7722123   0.5000   0.5000  -0.5000    1.5827337    1.5842674   -1.5809085   1
    5  645.1130145  688.5109611    2.6704066   0.5000   0.5000  -0.5000    1.5827337    1.5842674   -1.5809085   1
    5  643.8624275  687.4825173    2.1168282   0.5000   0.5000  -0.5000    1.5827337    1.5842674   -1.5809085   1
    5  643.6399071  686.8528789    0.5969567   0.5000   0.5000  -0.5000    1.5827337    1.5842674   -1.5809085   1
    5  644.7231376  685.7224470   -0.6310226   0.5000   0.5000  -0.5000    1.5827337    1.5842674   -1.5809085   1
    5  646.6526747  684.4517448   -1.1798956   0.5000   0.5000  -0.5000    1.5827337    1.5842674   -1.5809085   1
    5  649.0941800  683.8630684   -1.2232540   0.5000   0.5000  -0.5000    1.5827337    1.5842674   -1.5809085   1
    5  651.2761877  683.7421522   -0.7405202   0.5000   0.5000  -0.5000    1.5827337    1.5842674   -1.5809085   1
    5  653.8205801  683.7719728    0.7812916   0.5000   0.5000  -0.5000    1.5827337    1.5842674   -1.5809085   1
    6  617.0235789  629.3387497   68.1768397   0.5000   0.5000   0.5000    1.5785436    1.5800663    1.5832548   1
    6  617.0758775  628.1326201   68.1145041   0.5000   0.5000   0.5000    1.5785436    1.5800663    1.5832548   1
    6  617.3920162  626.7303721   67.3399699   0.5000   0.5000   0.5000    1.5785436    1.5800663    1.5832548   1
    6  618.3408183  625.5048670   66.7858635   0.5000   0.5000   0.5000    1.5785436    1.5800663    1.5832548   1
    6  619.8752537  624.3101472   67.1350032   0.5000   0.5000   0.5000    1.5785436    1.5800663    1.5832548   1
    6  621.8460642  622.9146638   67.7207975   0.5000   0.5000   0.5000    1.5785436    1.5800663    1.5832548   1
    6  623.5425530  621.2418948   67.6585214   0.5000   0.5000   0.5000    1.5785436    1.5800663    1.5832548   1
    6  624.5606085  619.7182263   66.8637170   0.5000   0.5000   0.5000    1.5785436    1.5800663    1.5832548   1
    6  625.5477044  618.5489659   65.8796610   0.5000   0.5000   0.5000    1.5785436    1.5800663    1.5832548   1
    6  626.4892418  616.9655775   65.0862238   0.5000   0.5000   0.5000    1.5785436    1.5800663    1.5832548   1
    6  626.9226066  614.7592792   65.2698857   0.5000   0.5000   0.5000    1.5785436    1.5800663    1.5832548   1
    6  626.8748828  613.2141181   66.8414965   0.5000   0.5000   0.5000    1.5785436    1.5800663    1.5832548   1
    6  626.2113280  612.3582279   68.8393829   0.5000   0.5000   0.5000    1.5785436    1.5800663    1.5832548   1
    6  625.3627542  611.4707044   70.8174051   0.5000   0.5000   0.5000    1.5785436    1.5800663    1.5832548   1
    6  624.8496867  610.6621967   72.8888153   0.5000   0.5000   0.5000    1.5785436    1.5800663    1.5832548   1
    6  623.9700544  610.3126229   74.7987804   0.5000   0.5000   0.5000    1.5785436    1.5800663    1.5832548   1
    6  622.6059109  610.6630814   76.5053648   0.5000   0.5000   0.5000    1.5785436    1.5800663    1.5832548   1
    6  621.3469001  611.4699622   78.1160584   0.5000   0.5000   0.5000    1.5785436    1.5800663    1.5832548   1
    6  619.9613448  612.6867756   79.1311870   0.5000   0.5000   0.5000    1.5785436    1.5800663    1.5832548   1
    6  618.0972712  614.3439382   79.4236520   0.5000   0.5000   0.5000    1.5785436    1.5800663    1.5832548   1
    6  616.6282751  616.4731119   79.3153627   0.5000   0.5000   0.5000    1.5785436    1.5800663    1.5832548   1
    6  616.1887258  618.9295578   78.8540548   0.5000   0.5000   0.5000    1.5785436    1.5800663    1.5832548   1
    6  616.3488807  621.1579907   77.8548095   0.5000   0.5000   0.5000    1.5785436    1.5800663    1.5832548   1
    6  616.5299467  622.7408479   76.3056346   0.5000   0.5000   0.5000    1.5785436    1.5800663    1.5832548   1
    6  616.3870522  624.0028771   74.4097631   0.5000   0.5000   0.5000    1.5785436    1.5800663    1.5832548   1
    6  616.2971747  625.6153664   72.1630316   0.5000   0.5000   0.5000    1.5785436    1.5800663    1.5832548   1
    6  616.4917961  627.2355343   70.1807519   0.5000   0.5000   0.5000    1.5785436    1.5800663    1.5832548   1
    6  616.7159003  628.3683005   69.0521956   0.5000   0.5000   0.5000    1.5785436    1.5800663    1.5832548   1
    6  617.0235790  629.3387498   68.1768396   0.5000   0.5000   0.5000    1.5785436    1.5800663    1.5832548   1
    7  619.2757997  373.8254305  169.4007360   0.5000  -0.5000   0.5000    1.5814673   -1.5841039    1.5806234   1
    7  619.6773786  372.0016486  168.8683383   0.5000  -0.5000   0.5000    1.5814673   -1.5841039    1.5806234   1
    7  620.5029561  370.1257278  167.7320174   0.5000  -0.5000   0.5000    1.5814673   -1.5841039    1.5806234   1
    7  622.1134999  368.7465277  166.2657483   0.5000  -0.5000   0.5000    1.5814673   -1.5841039    1.5806234   1
    7  624.0352879  367.5172356  165.2771834   0.5000  -0.5000   0.5000    1.5814673   -1.5841039    1.5806234   1
    7  624.4567421  366.7675351  164.5509481   0.5000  -0.5000   0.5000    1.5814673   -1.5841039    1.5806234   1
    7  623.4045870  366.5502764  163.7573419   0.5000  -0.5000   0.5000    1.5814673   -1.5841039    1.5806234   1
    7  622.4638171  365.4974525  163.6406982   0.5000  -0.5000   0.5000    1.5814673   -1.5841039    1.5806234   1
    7  620.8151001  364.3607449  163.8007153   0.5000  -0.5000   0.5000    1.5814673   -1.5841039    1.5806234   1
    7  618.3587830  364.1371973  164.3536702   0.5000  -0.5000   0.5000    1.5814673   -1.5841039    1.5806234   1
    7  616.9274257  364.4553272  165.7912695   0.5000  -0.5000   0.5000    1.5814673   -1.5841039    1.5806234   1
    7  616.0589971  365.3031642  167.2347097   0.5000  -0.5000   0.5000    1.5814673   -1.5841039    1.5806234   1
    7  614.7690662  366.4131479  168.0551540   0.5000  -0.5000   0.5000    1.5814673   -1.5841039    1.5806234   1
    7  613.8894477  367.6934278  168.3591487   0.5000  -0.5000   0.5000    1.5814673   -1.5841039    1.5806234   1
    7  614.8394704  369.4837401  168.6648271   0.5000  -0.5000   0.5000    1.5814673   -1.5841039    1.5806234   1
    7  616.7113778  371.6096285  168.7961365   0.5000  -0.5000   0.5000    1.5814673   -1.5841039    1.5806234   1
    7  617.9175855  373.1583246  168.9130243   0.5000  -0.5000   0.5000    1.5814673   -1.5841039    1.5806234   1
    7  619.2757999  373.8254306  169.4007361   0.5000  -0.5000   0.5000    1.5814673   -1.5841039    1.5806234   1
    8  472.0007223  162.3510000  233.7388612  -0.5000  -0.5000   0.5000   -1.5827337   -1.5842674    1.5809085   0
    8  474.7016011  160.8041342  233.5175905  -0.5000  -0.5000   0.5000   -1.5827337   -1.5842674    1.5809085   0
    8  476.3388721  158.6052816  233.4449487  -0.5000  -0.5000   0.5000   -1.5827337   -1.5842674    1.5809085   0
    8  476.9418886  155.7981121  233.2748632  -0.5000  -0.5000   0.5000   -1.5827337   -1.5842674    1.5809085   0
    8  478.0555175  153.7969102  232.9874938  -0.5000  -0.5000   0.5000   -1.5827337   -1.5842674    1.5809085   0
    8  479.3757590  152.3495457  232.2072639  -0.5000  -0.5000   0.5000   -1.5827337   -1.5842674    1.5809085   0
    8  479.9048271  150.7421583  230.4843115  -0.5000  -0.5000   0.5000   -1.5827337   -1.5842674    1.5809085   0
    8  479.7009441  149.3639805  228.3733509  -0.5000  -0.5000   0.5000   -1.5827337   -1.5842674    1.5809085   0
    8  479.2541027  148.6073333  226.3433001  -0.5000  -0.5000   0.5000   -1.5827337   -1.5842674    1.5809085   0
    8  478.8568470  148.2712201  224.0375857  -0.5000  -0.5000   0.5000   -1.5827337   -1.5842674    1.5809085   0
    8  477.8441489  148.0714444  222.0561446  -0.5000  -0.5000   0.5000   -1.5827337   -1.5842674    1.5809085   0
    8  476.3443187  148.0210459  220.4423944  -0.5000  -0.5000   0.5000   -1.5827337   -1.5842674    1.5809085   0
    8  474.8072454  147.9795597  218.5855964  -0.5000  -0.5000   0.5000   -1.5827337   -1.5842674    1.5809085   0
    8  473.0130345  148.6141268  217.3444971  -0.5000  -0.5000   0.5000   -1.5827337   -1.5842674    1.5809085   0
    8  471.6896903  150.4189852  217.1077711  -0.5000  -0.5000   0.5000   -1.5827337   -1.5842674    1.5809085   0
    8  471.1629949  152.7331672  217.4349461  -0.5000  -0.5000   0.5000   -1.5827337   -1.5842674    1.5809085   0
    8  471.1071375  154.6460233  218.5193879  -0.5000  -0.5000   0.5000   -1.5827337   -1.5842674    1.5809085   0
    8  471.0384917  155.8869275  220.0822839  -0.5000  -0.5000   0.5000   -1.5827337   -1.5842674    1.5809085   0
    8  470.4905795  156.9450859  221.6018586  -0.5000  -0.5000   0.5000   -1.5827337   -1.5842674    1.5809085   0
    8  470.1498392  158.2311106  223.2043311  -0.5000  -0.5000   0.5000   -1.5827337   -1.5842674    1.5809085   0
    8  470.1487192  159.7040661  224.9245604  -0.5000  -0.5000   0.5000   -1.5827337   -1.5842674    1.5809085   0
    8  470.0737584  160.7030402  227.0229051  -0.5000  -0.5000   0.5000   -1.5827337   -1.5842674    1.5809085   0
    8  470.3391467  161.0823237  229.1366468  -0.5000  -0.5000   0.5000   -1.5827337   -1.5842674    1.5809085   0
    8  471.1219725  161.5113140  231.0724440  -0.5000  -0.5000   0.5000   -1.5827337   -1.5842674    1.5809085   0
    8  472.0007223  162.3510000  233.7388612  -0.5000  -0.5000   0.5000   -1.5827337   -1.5842674    1.5809085   0
    9  458.7646818  175.3425909  236.7320455   0.5000   0.5000  -0.5000    1.5827337    1.5842674   -1.5809085   0
    9  463.9812856  172.7217977  236.2534142   0.5000   0.5000  -0.5000    1.5827337    1.5842674   -1.5809085   0
    9  465.4864258  171.0964782  235.0053906   0.5000   0.5000  -0.5000    1.5827337    1.5842674   -1.5809085   0
    9  465.7586769  169.5322195  233.9138259   0.5000   0.5000  -0.5000    1.5827337    1.5842674   -1.5809085   0
    9  466.8750839  167.8880986  233.3310788   0.5000   0.5000  -0.5000    1.5827337    1.5842674   -1.5809085   0
    9  468.0029994  166.0002514  233.3832781   0.5000   0.5000  -0.5000    1.5827337    1.5842674   -1.5809085   0
    9  468.4917245  164.1220023  233.7138127   0.5000   0.5000  -0.5000    1.5827337    1.5842674   -1.5809085   0
    9  469.5118437  163.2757100  233.6322420   0.5000   0.5000  -0.5000    1.5827337    1.5842674   -1.5809085   0
    9  472.0007223  162.3510000  233.7388612   0.5000   0.5000  -0.5000    1.5827337    1.5842674   -1.5809085   0
   10  265.5307807  198.4072466  593.6255562   0.5000  -0.5000   0.5000    1.5814673   -1.5841039    1.5806234   1
   10  263.5500327  199.0036747  593.8730548   0.5000  -0.5000   0.5000    1.5814673   -1.5841039    1.5806234   1
   10  261.5735836  199.6059527  595.0691434   0.5000  -0.5000   0.5000    1.5814673   -1.5841039    1.5806234   1
   10  259.6963929  200.5215304  596.4635458   0.5000  -0.5000   0.5000    1.5814673   -1.5841039    1.5806234   1
   10  257.8032557  200.9801266  597.8882640   0.5000  -0.5000   0.5000    1.5814673   -1.5841039    1.5806234   1
   10  256.6750462  201.0126606  599.9111507   0.5000  -0.5000   0.5000    1.5814673   -1.5841039    1.5806234   1
   10  256.4208926  202.0629200  601.7494904   0.5000  -0.5000   0.5000    1.5814673   -1.5841039    1.5806234   1
   10  256.4899824  204.2911423  602.3462611   0.5000  -0.5000   0.5000    1.5814673   -1.5841039    1.5806234   1
   10  256.9899864  206.4271329  602.9159294   0.5000  -0.5000   0.5000    1.5814673   -1.5841039    1.5806234   1
   10  258.2518212  208.3950461  603.6834760   0.5000  -0.5000   0.5000    1.5814673   -1.5841039    1.5806234   1
   10  260.0868502  210.2847257  603.6385415   0.5000  -0.5000   0.5000    1.5814673   -1.5841039    1.5806234   1
   10  261.5860355  210.9974799  602.7014138   0.5000  -0.5000   0.5000    1.5814673   -1.5841039    1.5806234   1