ITEM: TIMESTEP
0
ITEM: NUMBER OF ATOMS
7871
ITEM: BOX BOUNDS pp pp pp 
0.0 695.683242
0.0 696.929294
0.0 697.974153
ITEM: ATOMS id x y z tbx tby tbz sbx sby sbz loop
    0  662.6997235  638.0728993  628.6680069   0.5000   0.5000   0.5000    1.5809864    1.5805410    1.5822113   1
    0  661.0128332  637.8125964  629.7072910   0.5000   0.5000   0.5000    1.5809864    1.5805410    1.5822113   1
    0  658.4965736  637.5123017  630.4064374   0.5000   0.5000   0.5000    1.5809864    1.5805410    1.5822113   1
    0  656.1151310  638.2003590  630.3096648   0.5000   0.5000   0.5000    1.5809864    1.5805410    1.5822113   1
    0  655.1602405  639.7737955  629.5795675   0.5000   0.5000   0.5000    1.5809864    1.5805410    1.5822113   1
    0  655.1452006  641.3606934  628.1726121   0.5000   0.5000   0.5000    1.5809864    1.5805410    1.5822113   1
    0  655.7709991  642.6374282  626.7872125   0.5000   0.5000   0.5000    1.5809864    1.5805410    1.5822113   1
    0  657.2836742  642.9686870  625.5771580   0.5000   0.5000   0.5000    1.5809864    1.5805410    1.5822113   1
    0  659.0839321  642.3214454  624.0885396   0.5000   0.5000   0.5000    1.5809864    1.5805410    1.5822113   1
    0  661.2355879  641.6130629  622.7703364   0.5000   0.5000   0.5000    1.5809864    1.5805410    1.5822113   1
    0  663.1350515  641.0420337  623.1533464   0.5000   0.5000   0.5000    1.5809864    1.5805410    1.5822113   1
    0  663.6350961  640.3031355  625.3951737   0.5000   0.5000   0.5000    1.5809864    1.5805410    1.5822113   1
    0  663.6292722  639.3792615  627.3335051   0.5000   0.5000   0.5000    1.5809864    1.5805410    1.5822113   1
    0  663.6534562  638.6924466  627.9899636   0.5000   0.5000   0.5000    1.5809864    1.5805410    1.5822113   1
    0  662.6997235  638.0728993  628.6680068   0.5000   0.5000   0.5000    1.5809864    1.5805410    1.5822113   1
    1  482.8328179  214.1530154  602.2580341   0.5000  -0.5000   0.5000    1.5823369   -1.5838270    1.5798308   1
    1  484.2665923  213.2999245  600.7846390   0.5000  -0.5000   0.5000    1.5823369   -1.5838270    1.5798308   1
    1  486.5815940  212.8713456  598.9024397   0.5000  -0.5000   0.5000    1.5823369   -1.5838270    1.5798308   1
    1  487.8425199  212.3757110  596.8763477   0.5000  -0.5000   0.5000    1.5823369   -1.5838270    1.5798308   1
    1  488.2870828  211.0317084  595.1592388   0.5000  -0.5000   0.5000    1.5823369   -1.5838270    1.5798308   1
    1  488.1955138  209.0551625  593.6680242   0.5000  -0.5000   0.5000    1.5823369   -1.5838270    1.5798308   1
    1  487.4499715  207.3317225  592.2844371   0.5000  -0.5000   0.5000    1.5823369   -1.5838270    1.5798308   1
    1  486.5481023  205.5761168  592.1061663   0.5000  -0.5000   0.5000    1.5823369   -1.5838270    1.5798308   1
    1  485.2539977  203.7663281  592.3554486   0.5000  -0.5000   0.5000    1.5823369   -1.5838270    1.5798308   1
    1  483.3983256  202.1092051  592.2503166   0.5000  -0.5000   0.5000    1.5823369   -1.5838270    1.5798308   1
    1  481.5937830  200.2519763  592.3379246   0.5000  -0.5000   0.5000    1.5823369   -1.5838270    1.5798308   1
    1  479.6741401  198.9307019  592.8085523   0.5000  -0.5000   0.5000    1.5823369   -1.5838270    1.5798308   1
    1  477.6937821  198.4306508  594.1017649   0.5000  -0.5000   0.5000    1.5823369   -1.5838270    1.5798308   1
    1  476.8602782  198.7272317  596.2000235   0.5000  -0.5000   0.5000    1.5823369   -1.5838270    1.5798308   1
    1  477.1080924  200.4008604  597.9390516   0.5000  -0.5000   0.5000    1.5823369   -1.5838270    1.5798308   1
    1  477.4198172  202.5630716  598.9781329   0.5000  -0.5000   0.5000    1.5823369   -1.5838270    1.5798308   1
    1  478.0181244  204.3912825  599.6939883   0.5000  -0.5000   0.5000    1.5823369   -1.5838270    1.5798308   1
    1  478.9139883  206.3989643  600.2283879   0.5000  -0.5000   0.5000    1.5823369   -1.5838270    1.5798308   1
    1  479.4661765  208.4877675  601.0714109   0.5000  -0.5000   0.5000    1.5823369   -1.5838270    1.5798308   1
    1  480.3067215  210.3956418  602.1025097   0.5000  -0.5000   0.5000    1.5823369   -1.5838270    1.5798308   1
    1  481.7392367  212.2918001  602.3795168   0.5000  -0.5000   0.5000    1.5823369   -1.5838270    1.5798308   1
    1  482.5436048  213.6073574  602.3454274   0.5000  -0.5000   0.5000    1.5823369   -1.5838270    1.5798308   1
    1  482.8328179  214.1530154  602.2580341   0.5000  -0.5000   0.5000    1.5823369   -1.5838270    1.5798308   1
    2  210.5828960  604.4228595   80.4945505   0.5000   0.5000  -0.5000    1.5820164    1.5841494   -1.5821304   1
    2  212.1605694  602.1457119   80.5208760   0.5000   0.5000  -0.5000    1.5820164    1.5841494   -1.5821304   1
    2  213.3063638  600.2040872   79.9189391   0.5000   0.5000  -0.5000    1.5820164    1.5841494   -1.5821304   1
    2  214.4765482  598.8587674   78.9690295   0.5000   0.5000  -0.5000    1.5820164    1.5841494   -1.5821304   1
    2  215.7359325  597.2631535   78.5002700   0.5000   0.5000  -0.5000    1.5820164    1.5841494   -1.5821304   1
    2  217.0835888  595.7847840   78.6077121   0.5000   0.5000  -0.5000    1.5820164    1.5841494   -1.5821304   1
    2  218.4923702  595.2373247   79.7291183   0.5000   0.5000  -0.5000    1.5820164    1.5841494   -1.5821304   1
    2  219.4981759  595.2397749   82.2327513   0.5000   0.5000  -0.5000    1.5820164    1.5841494   -1.5821304   1
    2  221.0572101  595.5009018   84.3954833   0.5000   0.5000  -0.5000    1.5820164    1.5841494   -1.5821304   1
    2  222.9119767  596.3086064   85.1949118   0.5000   0.5000  -0.5000    1.5820164    1.5841494   -1.5821304   1
    2  223.2304062  597.9365679   85.3860165   0.5000   0.5000  -0.5000    1.5820164    1.5841494   -1.5821304   1
    2  222.8915297  600.2662363   85.4811782   0.5000   0.5000  -0.5000    1.5820164    1.5841494   -1.5821304   1
    2  222.9597281  601.9892441   85.9296415   0.5000   0.5000  -0.5000    1.5820164    1.5841494   -1.5821304   1
    2  222.3010530  602.3606766   86.3180550   0.5000   0.5000  -0.5000    1.5820164    1.5841494   -1.5821304   1
    2  220.6737880  603.0577285   85.6142172   0.5000   0.5000  -0.5000    1.5820164    1.5841494   -1.5821304   1
    2  218.8065780  604.3753092   84.3696508   0.5000   0.5000  -0.5000    1.5820164    1.5841494   -1.5821304   1
    2  217.2799136  604.7023008   83.1722520   0.5000   0.5000  -0.5000    1.5820164    1.5841494   -1.5821304   1
    2  216.0621175  603.8101073   82.0420771   0.5000   0.5000  -0.5000    1.5820164    1.5841494   -1.5821304   1
    2  214.7757627  602.7085964   81.2362103   0.5000   0.5000  -0.5000    1.5820164    1.5841494   -1.5821304   1
    2  213.4089358  602.6815409   80.6803726   0.5000   0.5000  -0.5000    1.5820164    1.5841494   -1.5821304   1
    2  211.9647962  603.7008135   80.4187973   0.5000   0.5000  -0.5000    1.5820164    1.5841494   -1.5821304   1
    2  210.5828961  604.4228597   80.4945505   0.5000   0.5000  -0.5000    1.5820164    1.5841494   -1.5821304   1
    3  584.5447645  641.6860233  704.4805419   0.5000   0.5000   0.5000    1.5809864    1.5805410    1.5822113   1
    3  582.5805353  641.1601904  704.2694863   0.5000   0.5000   0.5000    1.5809864    1.5805410    1.5822113   1
    3  581.0974880  641.5746573  703.2783308   0.5000   0.5000   0.5000    1.5809864    1.5805410    1.5822113   1
    3  580.5244413  642.3030223  701.5392660   0.5000   0.5000   0.5000    1.5809864    1.5805410    1.5822113   1
    3  579.8452893  642.5729714  699.4877211   0.5000   0.5000   0.5000    1.5809864    1.5805410    1.5822113   1
    3  579.7399046  642.5260917  697.5284929   0.5000   0.5000   0.5000    1.5809864    1.5805410    1.5822113   1
    3  581.1166619  642.4208692  696.3134439   0.5000   0.5000   0.5000    1.5809864    1.5805410    1.5822113   1
    3  583.1805885  641.5038313  695.7672804   0.5000   0.5000   0.5000    1.5809864    1.5805410    1.5822113   1
    3  584.8133421  639.8544551  695.8702824   0.5000   0.5000   0.5000    1.5809864    1.5805410    1.5822113   1
    3  585.5651942  638.0939479  696.5640572   0.5000   0.5000   0.5000    1.5809864    1.5805410    1.5822113   1
    3  585.9073374  636.6111205  698.0295357   0.5000   0.5000   0.5000    1.5809864    1.5805410    1.5822113   1
    3  586.0659418  636.2421261  700.6698787   0.5000   0.5000   0.5000    1.5809864    1.5805410    1.5822113   1
    3  585.8019453  637.0070106  703.0763512   0.5000   0.5000   0.5000    1.5809864    1.5805410    1.5822113   1
    3  585.5377970  638.3762484  704.2830776   0.5000   0.5000   0.5000    1.5809864    1.5805410    1.5822113   1
    3  585.4453133  639.9477386  704.6158682   0.5000   0.5000   0.5000    1.5809864    1.5805410    1.5822113   1
    3  584.5447645  641.6860233  704.4805419   0.5000   0.5000   0.5000    1.5809864    1.5805410    1.5822113   1
    4  639.0899166  565.1952501  475.2285374  -0.5000  -0.5000   0.5000   -1.5820164   -1.5841494    1.5821304   0
    4  636.3397833  566.9862124  476.4211172  -0.5000  -0.5000   0.5000   -1.5820164   -1.5841494    1.5821304   0
    4  636.2030517  568.2211753  478.0099226  -0.5000  -0.5000   0.5000   -1.5820164   -1.5841494    1.5821304   0
    4  637.4157670  569.3615499  479.6373936  -0.5000  -0.5000   0.5000   -1.5820164   -1.5841494    1.5821304   0
    4  639.2633968  570.5197366  480.8245947  -0.5000  -0.5000   0.5000   -1.5820164   -1.5841494    1.5821304   0
    4  641.9944805  570.7144693  481.7950001  -0.5000  -0.5000   0.5000   -1.5820164   -1.5841494    1.5821304   0
    4  644.1153393  569.4648934  482.8200921  -0.5000  -0.5000   0.5000   -1.5820164   -1.5841494    1.5821304   0
    4  645.1040861  567.3283965  483.0380522  -0.5000  -0.5000   0.5000   -1.5820164   -1.5841494    1.5821304   0
    4  645.6094640  565.8110220  481.3458694  -0.5000  -0.5000   0.5000   -1.5820164   -1.5841494    1.5821304   0
    4  645.2054386  565.4026216  478.8930001  -0.5000  -0.5000   0.5000   -1.5820164   -1.5841494    1.5821304   0
    4  643.8901597  564.8365904  477.7243597  -0.5000  -0.5000   0.5000   -1.5820164   -1.5841494    1.5821304   0
    4  642.7622894  564.1705950  477.2437419  -0.5000  -0.5000   0.5000   -1.5820164   -1.5841494    1.5821304   0
    4  641.5079108  564.3929930  476.3292308  -0.5000  -0.5000   0.5000   -1.5820164   -1.5841494    1.5821304   0
    4  639.0899166  565.1952501  475.2285374  -0.5000  -0.5000   0.5000   -1.5820164   -1.5841494    1.5821304   0
    5  341.7954472  347.0367611  325.3682694  -0.5000  -0.5000   0.5000   -1.5820164   -1.5841494    1.5821304   0
    5  342.0848891  348.9388734  327.2639335  -0.5000  -0.5000   0.5000   -1.5820164   -1.5841494    1.5821304   0
    5  341.6263509  350.7736812  327.8844910  -0.5000  -0.5000   0.5000   -1.5820164   -1.5841494    1.5821304   0
    5  340.7369015  352.3301157  328.7758342  -0.5000  -0.5000   0.5000   -1.5820164   -1.5841494    1.5821304   0
    5  340.0676096  353.8879600  330.1039944  -0.5000  -0.5000   0.5000   -1.5820164   -1.5841494    1.5821304   0
    5  339.4031808  355.7016373  330.9450396  -0.5000  -0.5000   0.5000   -1.5820164   -1.5841494    1.5821304   0
    5  337.5800976  357.0664457  331.2792722  -0.5000  -0.5000   0.5000   -1.5820164   -1.5841494    1.5821304   0
    5  335.4063278  358.0767072  331.5839226  -0.5000  -0.5000   0.5000   -1.5820164   -1.5841494    1.5821304   0
    5  334.3675060  359.7743769  332.0651333  -0.5000  -0.5000   0.5000   -1.5820164   -1.5841494    1.5821304   0
    5  333.5839762  361.4522737  333.1176149  -0.5000  -0.5000   0.5000   -1.5820164   -1.5841494    1.5821304   0
    5  332.9702013  362.5661713  335.0941474  -0.5000  -0.5000   0.5000   -1.5820164   -1.5841494    1.5821304   0
    5  333.1475772  363.7287796  336.8806547  -0.5000  -0.5000   0.5000   -1.5820164   -1.5841494    1.5821304   0
    5  333.9798534  364.6188265  337.8490059  -0.5000  -0.5000   0.5000   -1.5820164   -1.5841494    1.5821304   0
    5  335.5974538  365.1689910  338.3295053  -0.5000  -0.5000   0.5000   -1.5820164   -1.5841494    1.5821304   0
    5  337.3983855  365.5564143  338.7983808  -0.5000  -0.5000   0.5000   -1.5820164   -1.5841494    1.5821304   0
    5  338.0597757  365.4011446  339.8562085  -0.5000  -0.5000   0.5000   -1.5820164   -1.5841494    1.5821304   0
    5  337.8290647  365.5929343  341.1009044  -0.5000  -0.5000   0.5000   -1.5820164   -1.5841494    1.5821304   0
    5  337.5002771  366.8271023  342.0007917  -0.5000  -0.5000   0.5000   -1.5820164   -1.5841494    1.5821304   0
    5  336.3324961  368.2133538  342.8365711  -0.5000  -0.5000   0.5000   -1.5820164   -1.5841494    1.5821304   0
    5  334.5498035  369.3606581  343.7204555  -0.5000  -0.5000   0.5000   -1.5820164   -1.5841494    1.5821304   0
    5  332.8133415  370.1169013  344.7346767  -0.5000  -0.5000   0.5000   -1.5820164   -1.5841494    1.5821304   0
    5  330.8806709  370.2096689  346.3098838  -0.5000  -0.5000   0.5000   -1.5820164   -1.5841494    1.5821304   0
    5  329.8502977  370.7849799  348.0165279  -0.5000  -0.5000   0.5000   -1.5820164   -1.5841494    1.5821304   0
    5  330.1482273  372.7924241  348.9751316  -0.5000  -0.5000   0.5000   -1.5820164   -1.5841494    1.5821304   0
    5  330.0841836  374.2698709  348.7699194  -0.5000  -0.5000   0.5000   -1.5820164   -1.5841494    1.5821304   0
    5  330.3205909  373.7004870  348.0680834  -0.5000  -0.5000   0.5000   -1.5820164   -1.5841494    1.5821304   0
    5  332.2309655  372.4342754  348.0566760  -0.5000  -0.5000   0.5000   -1.5820164   -1.5841494    1.5821304   0
    5  334.2184529  371.7936795  348.3227363  -0.5000  -0.5000   0.5000   -1.5820164   -1.5841494    1.5821304   0
    5  335.9507076  371.8188395  348.0645351  -0.5000  -0.5000   0.5000   -1.5820164   -1.5841494    1.5821304   0
    5  338.4906106  371.9536159  347.7207172  -0.5000  -0.5000   0.5000   -1.5820164   -1.5841494    1.5821304   0
    5  340.9898132  372.0462615  348.0571099  -0.5000  -0.5000   0.5000   -1.5820164   -1.5841494    1.5821304   0
    5  342.8491597  372.6511882  348.7890724  -0.5000  -0.5000   0.5000   -1.5820164   -1.5841494    1.5821304   0
    5  344.7959343  373.0774440  349.3890776  -0.5000  -0.5000   0.5000   -1.5820164   -1.5841494    1.5821304   0
    5  346.5916787  372.7996102  350.2256800  -0.5000  -0.5000   0.5000   -1.5820164   -1.5841494    1.5821304   0
    5  347.4789331  373.2277517  351.5908142  -0.5000  -0.5000   0.5000   -1.5820164   -1.5841494    1.5821304   0
    5  348.1863798  374.6485396  353.1410536  -0.5000  -0.5000   0.5000   -1.5820164   -1.5841494    1.5821304   0
    5  349.6392674  376.0789592  354.4775410  -0.5000  -0.5000   0.5000   -1.5820164   -1.5841494    1.5821304   0
    5  351.3185930  376.8440171  355.7534460  -0.5000  -0.5000   0.5000   -1.5820164   -1.5841494    1.5821304   0
    5  352.7049087  377.0988692  356.9186228  -0.5000  -0.5000   0.5000   -1.5820164   -1.5841494    1.5821304   0
    5  353.4558762  378.0099563  357.6490580  -0.5000  -0.5000   0.5000   -1.5820164   -1.5841494    1.5821304   0
    5  353.3393621  380.1456189  358.4276972  -0.5000  -0.5000   0.5000   -1.5820164   -1.5841494    1.5821304   0
    5  353.1043375  382.5405643  358.9686350  -0.5000  -0.5000   0.5000   -1.5820164   -1.5841494    1.5821304   0
    5  353.8286747  383.4259622  359.1779134  -0.5000  -0.5000   0.5000   -1.5820164   -1.5841494    1.5821304   0
    5  355.6856621  383.0436110  360.4163964  -0.5000  -0.5000   0.5000   -1.5820164   -1.5841494    1.5821304   0
    5  357.6882862  383.2232060  362.0463540  -0.5000  -0.5000   0.5000   -1.5820164   -1.5841494    1.5821304   0
    5  359.3472484  384.7233392  362.7918421  -0.5000  -0.5000   0.5000   -1.5820164   -1.5841494    1.5821304   0
    5  360.6198794  387.0047338  363.3455238  -0.5000  -0.5000   0.5000   -1.5820164   -1.5841494    1.5821304   0
    5  361.6143307  388.7280757  364.3742002  -0.5000  -0.5000   0.5000   -1.5820164   -1.5841494    1.5821304   0
    5  362.0793780  389.9355771  365.6175514  -0.5000  -0.5000   0.5000   -1.5820164   -1.5841494    1.5821304   0
    5  361.3195847  390.8072628  366.0229898  -0.5000  -0.5000   0.5000   -1.5820164   -1.5841494    1.5821304   0
    5  360.8896704  391.2496435  364.8986833  -0.5000  -0.5000   0.5000   -1.5820164   -1.5841494    1.5821304   0
    5  361.3948518  392.3921371  363.4151673  -0.5000  -0.5000   0.5000   -1.5820164   -1.5841494    1.5821304   0
    5  360.9568364  394.3794618  362.5388812  -0.5000  -0.5000   0.5000   -1.5820164   -1.5841494    1.5821304   0
    5  359.6329693  396.0757835  361.9079561  -0.5000  -0.5000   0.5000   -1.5820164   -1.5841494    1.5821304   0
    5  358.4950933  397.4904448  361.8174556  -0.5000  -0.5000   0.5000   -1.5820164   -1.5841494    1.5821304   0
    5  357.8822907  399.6001171  362.3224414  -0.5000  -0.5000   0.5000   -1.5820164   -1.5841494    1.5821304   0
    5  357.5428431  402.2615651  362.6498529  -0.5000  -0.5000   0.5000   -1.5820164   -1.5841494    1.5821304   0
    5  357.3368293  405.0315999  363.2496294  -0.5000  -0.5000   0.5000   -1.5820164   -1.5841494    1.5821304   0
    5  357.2599788  408.0006017  364.0662055  -0.5000  -0.5000   0.5000   -1.5820164   -1.5841494    1.5821304   0
    5  356.8841709  410.2105377  363.6885530  -0.5000  -0.5000   0.5000   -1.5820164   -1.5841494    1.5821304   0
    5  356.2728001  410.1554576  362.2744279  -0.5000  -0.5000   0.5000   -1.5820164   -1.5841494    1.5821304   0
    5  355.7772616  409.2365891  360.7455677  -0.5000  -0.5000   0.5000   -1.5820164   -1.5841494    1.5821304   0
    5  354.9366250  409.2335990  358.9469428  -0.5000  -0.5000   0.5000   -1.5820164   -1.5841494    1.5821304   0
    5  353.6065680  409.3558531  357.0590714  -0.5000  -0.5000   0.5000   -1.5820164   -1.5841494    1.5821304   0
    5  353.0940156  409.5586281  355.2882253  -0.5000  -0.5000   0.5000   -1.5820164   -1.5841494    1.5821304   0
    5  353.6797628  409.5315386  352.8279617  -0.5000  -0.5000   0.5000   -1.5820164   -1.5841494    1.5821304   0
    5  353.9874447  408.7824176  350.3856179  -0.5000  -0.5000   0.5000   -1.5820164   -1.5841494    1.5821304   0
    5  352.8196756  408.3503895  349.6193584  -0.5000  -0.5000   0.5000   -1.5820164   -1.5841494    1.5821304   0
    5  350.4322399  408.6187645  349.5420697  -0.5000  -0.5000   0.5000   -1.5820164   -1.5841494    1.5821304   0
    5  348.3839276  409.7335495  349.0385747  -0.5000  -0.5000   0.5000   -1.5820164   -1.5841494    1.5821304   0
    5  347.3366981  411.1929795  348.0603364  -0.5000  -0.5000   0.5000   -1.5820164   -1.5841494    1.5821304   0
    5  346.6738357  411.7313089  345.9193421  -0.5000  -0.5000   0.5000   -1.5820164   -1.5841494    1.5821304   0
    5  345.3539769  411.6738331  343.5552683  -0.5000  -0.5000   0.5000   -1.5820164   -1.5841494    1.5821304   0
    5  343.2807545  411.9426648  342.2460292  -0.5000  -0.5000   0.5000   -1.5820164   -1.5841494    1.5821304   0
    5  341.8345878  412.7918653  341.9985708  -0.5000  -0.5000   0.5000   -1.5820164   -1.5841494    1.5821304   0
    5  341.9459912  414.1868618  342.7284487  -0.5000  -0.5000   0.5000   -1.5820164   -1.5841494    1.5821304   0
    5  342.9422921  416.0369100  343.4017618  -0.5000  -0.5000   0.5000   -1.5820164   -1.5841494    1.5821304   0
    5  343.0621078  417.6729924  343.2944413  -0.5000  -0.5000   0.5000   -1.5820164   -1.5841494    1.5821304   0
    5  341.8705460  418.1174864  342.5790607  -0.5000  -0.5000   0.5000   -1.5820164   -1.5841494    1.5821304   0
    5  340.4454402  417.4504869  341.4688475  -0.5000  -0.5000   0.5000   -1.5820164   -1.5841494    1.5821304   0
    5  338.7508588  416.5676977  340.8058161  -0.5000  -0.5000   0.5000   -1.5820164   -1.5841494    1.5821304   0
    5  337.0055227  415.6032888  340.4116217  -0.5000  -0.5000   0.5000   -1.5820164   -1.5841494    1.5821304   0
    5  336.4343500  414.4806517  338.7154820  -0.5000  -0.5000   0.5000   -1.5820164   -1.5841494    1.5821304   0
    5  336.1333616  413.9349292  336.0942146  -0.5000  -0.5000   0.5000   -1.5820164   -1.5841494    1.5821304   0
    5  334.4668513  414.0454112  334.6643620  -0.5000  -0.5000   0.5000   -1.5820164   -1.5841494    1.5821304   0
    5  332.4447483  415.0999603  334.6105454  -0.5000  -0.5000   0.5000   -1.5820164   -1.5841494    1.5821304   0
    5  331.0326044  416.7698970  334.5426670  -0.5000  -0.5000   0.5000   -1.5820164   -1.5841494    1.5821304   0
    5  329.2701742  417.8037661  334.1459442  -0.5000  -0.5000   0.5000   -1.5820164   -1.5841494    1.5821304   0
    5  327.3842196  418.4372621  333.4167905  -0.5000  -0.5000   0.5000   -1.5820164   -1.5841494    1.5821304   0
    5  325.9622476  419.1608260  332.4656272  -0.5000  -0.5000   0.5000   -1.5820164   -1.5841494    1.5821304   0
    5  324.8615231  420.6299011  332.8152110  -0.5000  -0.5000   0.5000   -1.5820164   -1.5841494    1.5821304   0
    5  324.3509627  422.2944959  334.5926443  -0.5000  -0.5000   0.5000   -1.5820164   -1.5841494    1.5821304   0
    5  323.8520290  422.1595241  335.3086469  -0.5000  -0.5000   0.5000   -1.5820164   -1.5841494    1.5821304   0
    5  323.1848194  420.4093579  333.9696628  -0.5000  -0.5000   0.5000   -1.5820164   -1.5841494    1.5821304   0
    5  323.0450934  418.5324400  332.2167755  -0.5000  -0.5000   0.5000   -1.5820164   -1.5841494    1.5821304   0
    5  322.7322237  417.1486098  331.0417385  -0.5000  -0.5000   0.5000   -1.5820164   -1.5841494    1.5821304   0
    5  321.4758249  416.4000457  329.8067246  -0.5000  -0.5000   0.5000   -1.5820164   -1.5841494    1.5821304   0
    5  320.0034517  416.0307355  327.8158814  -0.5000  -0.5000   0.5000   -1.5820164   -1.5841494    1.5821304   0
    5  319.0874081  415.4486625  325.3153648  -0.5000  -0.5000   0.5000   -1.5820164   -1.5841494    1.5821304   0
    5  318.6092419  414.8230656  323.0249700  -0.5000  -0.5000   0.5000   -1.5820164   -1.5841494    1.5821304   0
    5  317.7980016  414.6563681  321.3293294  -0.5000  -0.5000   0.5000   -1.5820164   -1.5841494    1.5821304   0
    5  316.3241244  414.2598594  320.0979026  -0.5000  -0.5000   0.5000   -1.5820164   -1.5841494    1.5821304   0
    5  314.7127755  413.2511622  318.5200615  -0.5000  -0.5000   0.5000   -1.5820164   -1.5841494    1.5821304   0
    5  313.1862250  412.2123313  316.5124391  -0.5000  -0.5000   0.5000   -1.5820164   -1.5841494    1.5821304   0
    5  311.6011105  411.3892214  314.8279650  -0.5000  -0.5000   0.5000   -1.5820164   -1.5841494    1.5821304   0
    5  310.0728783  410.7846843  313.3978663  -0.5000  -0.5000   0.5000   -1.5820164   -1.5841494    1.5821304   0
    5  308.5430866  410.0028520  312.1621553  -0.5000  -0.5000   0.5000   -1.5820164   -1.5841494    1.5821304   0
    5  307.2583486  408.7836129  311.9465147  -0.5000  -0.5000   0.5000   -1.5820164   -1.5841494    1.5821304   0
    5  307.3288644  407.2389448  312.4628657  -0.5000  -0.5000   0.5000   -1.5820164   -1.5841494    1.5821304   0
    5  308.6101654  405.3399911  312.7156656  -0.5000  -0.5000   0.5000   -1.5820164   -1.5841494    1.5821304   0
    5  309.6296269  403.3843224  313.3715247  -0.5000  -0.5000   0.5000   -1.5820164   -1.5841494    1.5821304   0
    5  310.3423865  401.8516044  314.6848196  -0.5000  -0.5000   0.5000   -1.5820164   -1.5841494    1.5821304   0
    5  311.2686870  401.1884820  316.3136108  -0.5000  -0.5000   0.5000   -1.5820164   -1.5841494    1.5821304   0
    5  312.6651205  401.2014200  317.9526163  -0.5000  -0.5000   0.5000   -1.5820164   -1.5841494    1.5821304   0
    5  314.3166885  400.0291122  318.9358196  -0.5000  -0.5000   0.5000   -1.5820164   -1.5841494    1.5821304   0
    5  315.0364588  397.6089917  318.7267494  -0.5000  -0.5000   0.5000   -1.5820164   -1.5841494    1.5821304   0
    5  315.1612809  395.9673058  317.2123775  -0.5000  -0.5000   0.5000   -1.5820164   -1.5841494    1.5821304   0
    5  315.5972996  394.8574368  315.5390949  -0.5000  -0.5000   0.5000   -1.5820164   -1.5841494    1.5821304   0
    5  315.8425478  393.6085181  313.9784842  -0.5000  -0.5000   0.5000   -1.5820164   -1.5841494    1.5821304   0
    5  315.3116704  392.4320102  312.3253869  -0.5000  -0.5000   0.5000   -1.5820164   -1.5841494    1.5821304   0
    5  314.4418850  391.1340692  311.0651305  -0.5000  -0.5000   0.5000   -1.5820164   -1.5841494    1.5821304   0
    5  314.1285948  389.5134045  310.4574487  -0.5000  -0.5000   0.5000   -1.5820164   -1.5841494    1.5821304   0
    5  314.6886902  387.5537352  310.3633417  -0.5000  -0.5000   0.5000   -1.5820164   -1.5841494    1.5821304   0
    5  315.7063245  385.4694544  309.8901248  -0.5000  -0.5000   0.5000   -1.5820164   -1.5841494    1.5821304   0
    5  316.1138151  383.4281005  309.3433262  -0.5000  -0.5000   0.5000   -1.5820164   -1.5841494    1.5821304   0
    5  315.7574892  381.4424550  309.5620516  -0.5000  -0.5000   0.5000   -1.5820164   -1.5841494    1.5821304   0
    5  315.9334876  379.3768384  310.1402107  -0.5000  -0.5000   0.5000   -1.5820164   -1.5841494    1.5821304   0
    5  317.1105677  376.9931509  310.5009221  -0.5000  -0.5000   0.5000   -1.5820164   -1.5841494    1.5821304   0
    5  318.0784696  374.2858445  310.1860911  -0.5000  -0.5000   0.5000   -1.5820164   -1.5841494    1.5821304   0
    5  317.8808417  372.0939989  309.5085960  -0.5000  -0.5000   0.5000   -1.5820164   -1.5841494    1.5821304   0
    5  317.5959618  370.6546085  309.3544935  -0.5000  -0.5000   0.5000   -1.5820164   -1.5841494    1.5821304   0
    5  318.6804341  368.8974063  309.5948750  -0.5000  -0.5000   0.5000   -1.5820164   -1.5841494    1.5821304   0
    5  320.1849453  366.9411558  309.1278577  -0.5000  -0.5000   0.5000   -1.5820164   -1.5841494    1.5821304   0
    5  320.6338649  365.4600232  307.7462913  -0.5000  -0.5000   0.5000   -1.5820164   -1.5841494    1.5821304   0
    5  320.1703226  363.8324388  306.9282170  -0.5000  -0.5000   0.5000   -1.5820164   -1.5841494    1.5821304   0
    5  320.0604636  361.6987100  307.3249796  -0.5000  -0.5000   0.5000   -1.5820164   -1.5841494    1.5821304   0
    5  321.1413035  359.9617364  308.1485687  -0.5000  -0.5000   0.5000   -1.5820164   -1.5841494    1.5821304   0
    5  322.3154404  359.0902447  309.8823101  -0.5000  -0.5000   0.5000   -1.5820164   -1.5841494    1.5821304   0
    5  322.8502049  358.8385860  312.7247394  -0.5000  -0.5000   0.5000   -1.5820164   -1.5841494    1.5821304   0
    5  323.4449449  358.6731360  315.1675465  -0.5000  -0.5000   0.5000   -1.5820164   -1.5841494    1.5821304   0
    5  324.4628741  358.0037114  316.5984475  -0.5000  -0.5000   0.5000   -1.5820164   -1.5841494    1.5821304   0
    5  325.3264099  357.1856808  317.8685798  -0.5000  -0.5000   0.5000   -1.5820164   -1.5841494    1.5821304   0
    5  325.5917437  357.0290333  319.4270041  -0.5000  -0.5000   0.5000   -1.5820164   -1.5841494    1.5821304   0
    5  325.7626827  357.3751352  320.8617903  -0.5000  -0.5000   0.5000   -1.5820164   -1.5841494    1.5821304   0
    5  326.4302129  356.9048302  322.1861003  -0.5000  -0.5000   0.5000   -1.5820164   -1.5841494    1.5821304   0
    5  327.7252303  355.5605149  323.5379590  -0.5000  -0.5000   0.5000   -1.5820164   -1.5841494    1.5821304   0
    5  329.5536065  354.5177079  324.3452883  -0.5000  -0.5000   0.5000   -1.5820164   -1.5841494    1.5821304   0
    5  331.5185558  353.4799378  323.9807321  -0.5000  -0.5000   0.5000   -1.5820164   -1.5841494    1.5821304   0
    5  332.7737122  351.7012426  323.1311303  -0.5000  -0.5000   0.5000   -1.5820164   -1.5841494    1.5821304   0
    5  333.7118969  350.3318712  322.8385975  -0.5000  -0.5000   0.5000   -1.5820164   -1.5841494    1.5821304   0
    5  335.1131317  349.9509760  323.0315778  -0.5000  -0.5000   0.5000   -1.5820164   -1.5841494    1.5821304   0
    5  336.7617191  349.1252869  323.4563881  -0.5000  -0.5000   0.5000   -1.5820164   -1.5841494    1.5821304   0
    5  338.1917920  348.0524555  323.9448530  -0.5000  -0.5000   0.5000   -1.5820164   -1.5841494    1.5821304   0
    5  339.5197432  347.5153477  324.4888010  -0.5000  -0.5000   0.5000   -1.5820164   -1.5841494    1.5821304   0
    5  341.7954472  347.0367611  325.3682694  -0.5000  -0.5000   0.5000   -1.5820164   -1.5841494    1.5821304   0
    6  549.5053106   -1.5510431   99.4780791  -0.5000   0.5000   0.5000   -1.5833668    1.5802186    1.5845110   1
    6  550.1941830   -0.7334321  100.2861396  -0.5000   0.5000   0.5000   -1.5833668    1.5802186    1.5845110   1
    6  550.6043975    0.7721062   99.1337070  -0.5000   0.5000   0.5000   -1.5833668    1.5802186    1.5845110   1
    6  550.6522903    2.2426989   97.0629897  -0.5000   0.5000   0.5000   -1.5833668    1.5802186    1.5845110   1
    6  550.3532115    2.5381927   95.0570969  -0.5000   0.5000   0.5000   -1.5833668    1.5802186    1.5845110   1
    6  549.7049324    2.5524988   92.9826769  -0.5000   0.5000   0.5000   -1.5833668    1.5802186    1.5845110   1
    6  548.6797888    2.8299036   91.1123881  -0.5000   0.5000   0.5000   -1.5833668    1.5802186    1.5845110   1
    6  548.2630330    3.8582070   89.5786740  -0.5000   0.5000   0.5000   -1.5833668    1.5802186    1.5845110   1
    6  548.5737852    5.1963894   88.1073351  -0.5000   0.5000   0.5000   -1.5833668    1.5802186    1.5845110   1
    6  548.7812802    6.3516869   86.1403489  -0.5000   0.5000   0.5000   -1.5833668    1.5802186    1.5845110   1
    6  549.2412631    7.4183177   84.1070784  -0.5000   0.5000   0.5000   -1.5833668    1.5802186    1.5845110   1
    6  550.1811987    7.7413374   83.7094991  -0.5000   0.5000   0.5000   -1.5833668    1.5802186    1.5845110   1
    6  550.7277429    7.5435185   85.4295541  -0.5000   0.5000   0.5000   -1.5833668    1.5802186    1.5845110   1
    6  551.1347219    7.4376469   87.4609950  -0.5000   0.5000   0.5000   -1.5833668    1.5802186    1.5845110   1