ITEM: TIMESTEP
0
ITEM: NUMBER OF ATOMS
8438
ITEM: BOX BOUNDS pp pp pp 
0.0 695.610373
0.0 696.873312
0.0 698.000021
ITEM: ATOMS id x y z tbx tby tbz sbx sby sbz loop
    0  610.5625737  567.7716013  605.9388086   0.5000  -0.5000  -0.5000    1.5837965   -1.5800164   -1.5842193   1
    0  612.5128890  568.4749979  605.5048182   0.5000  -0.5000  -0.5000    1.5837965   -1.5800164   -1.5842193   1
    0  614.1265232  569.7080800  605.7828916   0.5000  -0.5000  -0.5000    1.5837965   -1.5800164   -1.5842193   1
    0  615.4778680  571.3208225  606.0872474   0.5000  -0.5000  -0.5000    1.5837965   -1.5800164   -1.5842193   1
    0  616.8505593  573.5652317  606.0412635   0.5000  -0.5000  -0.5000    1.5837965   -1.5800164   -1.5842193   1
    0  617.5033306  575.8362620  605.2129386   0.5000  -0.5000  -0.5000    1.5837965   -1.5800164   -1.5842193   1
    0  616.9810401  577.2751146  603.8127329   0.5000  -0.5000  -0.5000    1.5837965   -1.5800164   -1.5842193   1
    0  615.8287024  577.9867120  602.3077358   0.5000  -0.5000  -0.5000    1.5837965   -1.5800164   -1.5842193   1
    0  614.7080059  578.4753307  600.6088110   0.5000  -0.5000  -0.5000    1.5837965   -1.5800164   -1.5842193   1
    0  613.4849131  578.6209401  598.5959635   0.5000  -0.5000  -0.5000    1.5837965   -1.5800164   -1.5842193   1
    0  612.1076755  578.1620672  596.8572865   0.5000  -0.5000  -0.5000    1.5837965   -1.5800164   -1.5842193   1
    0  610.6780516  577.6562562  596.6651585   0.5000  -0.5000  -0.5000    1.5837965   -1.5800164   -1.5842193   1
    0  609.6537978  577.8974817  598.2887492   0.5000  -0.5000  -0.5000    1.5837965   -1.5800164   -1.5842193   1
    0  609.6457156  577.6471932  600.1935881   0.5000  -0.5000  -0.5000    1.5837965   -1.5800164   -1.5842193   1
    0  609.6978379  575.7442421  601.2179238   0.5000  -0.5000  -0.5000    1.5837965   -1.5800164   -1.5842193   1
    0  609.2320491  573.4726184  601.8837794   0.5000  -0.5000  -0.5000    1.5837965   -1.5800164   -1.5842193   1
    0  609.3128364  571.5828853  602.8215769   0.5000  -0.5000  -0.5000    1.5837965   -1.5800164   -1.5842193   1
    0  610.1444487  569.8122013  603.6867342   0.5000  -0.5000  -0.5000    1.5837965   -1.5800164   -1.5842193   1
    0  610.8241292  568.6208382  604.4855539   0.5000  -0.5000  -0.5000    1.5837965   -1.5800164   -1.5842193   1
    0  610.6573646  568.1340503  605.3428639   0.5000  -0.5000  -0.5000    1.5837965   -1.5800164   -1.5842193   1
    0  610.5625735  567.7716011  605.9388087   0.5000  -0.5000  -0.5000    1.5837965   -1.5800164   -1.5842193   1
    1  478.7782084  613.4762663  624.5985884  -0.5000   0.5000   0.5000   -1.5837965    1.5800164    1.5842193   1
    1  479.8249413  614.5480190  625.2538798  -0.5000   0.5000   0.5000   -1.5837965    1.5800164    1.5842193   1
    1  480.7408877  616.5165236  625.7531513  -0.5000   0.5000   0.5000   -1.5837965    1.5800164    1.5842193   1
    1  480.9597250  618.6700093  626.0754064  -0.5000   0.5000   0.5000   -1.5837965    1.5800164    1.5842193   1
    1  481.5044695  620.4450598  626.8110019  -0.5000   0.5000   0.5000   -1.5837965    1.5800164    1.5842193   1
    1  482.8075103  621.8489400  628.2812171  -0.5000   0.5000   0.5000   -1.5837965    1.5800164    1.5842193   1
    1  484.0968356  622.8249195  629.9943039  -0.5000   0.5000   0.5000   -1.5837965    1.5800164    1.5842193   1
    1  484.8120182  622.7933472  632.3951039  -0.5000   0.5000   0.5000   -1.5837965    1.5800164    1.5842193   1
    1  485.2650910  621.6302458  634.7608136  -0.5000   0.5000   0.5000   -1.5837965    1.5800164    1.5842193   1
    1  485.6769183  619.5577859  635.7615496  -0.5000   0.5000   0.5000   -1.5837965    1.5800164    1.5842193   1
    1  485.7744841  617.4082762  636.7294455  -0.5000   0.5000   0.5000   -1.5837965    1.5800164    1.5842193   1
    1  485.6329235  615.9886035  638.8813194  -0.5000   0.5000   0.5000   -1.5837965    1.5800164    1.5842193   1
    1  485.5490427  614.7429817  640.2581063  -0.5000   0.5000   0.5000   -1.5837965    1.5800164    1.5842193   1
    1  485.6338349  613.0471419  639.7565571  -0.5000   0.5000   0.5000   -1.5837965    1.5800164    1.5842193   1
    1  485.3202082  611.2172503  638.7112485  -0.5000   0.5000   0.5000   -1.5837965    1.5800164    1.5842193   1
    1  484.4904247  609.6134410  637.5231275  -0.5000   0.5000   0.5000   -1.5837965    1.5800164    1.5842193   1
    1  483.5302102  608.3167167  635.7595373  -0.5000   0.5000   0.5000   -1.5837965    1.5800164    1.5842193   1
    1  482.3615205  607.9209186  633.3823332  -0.5000   0.5000   0.5000   -1.5837965    1.5800164    1.5842193   1
    1  481.5699795  607.8974620  631.0742154  -0.5000   0.5000   0.5000   -1.5837965    1.5800164    1.5842193   1
    1  481.2940649  608.1723389  629.7321467  -0.5000   0.5000   0.5000   -1.5837965    1.5800164    1.5842193   1
    1  480.9292119  610.1748128  629.0864511  -0.5000   0.5000   0.5000   -1.5837965    1.5800164    1.5842193   1
    1  480.6579822  612.4980924  628.0477987  -0.5000   0.5000   0.5000   -1.5837965    1.5800164    1.5842193   1
    1  480.0749856  613.2670269  626.5111416  -0.5000   0.5000   0.5000   -1.5837965    1.5800164    1.5842193   1
    1  478.7782084  613.4762663  624.5985884  -0.5000   0.5000   0.5000   -1.5837965    1.5800164    1.5842193   1
    2  618.1126111  588.4159722  453.1891389   0.5000   0.5000  -0.5000    1.5820565    1.5841841   -1.5816895   0
    2  619.3771571  588.7462546  457.2886723   0.5000   0.5000  -0.5000    1.5820565    1.5841841   -1.5816895   0
    2  619.1670771  589.2322149  460.3778760   0.5000   0.5000  -0.5000    1.5820565    1.5841841   -1.5816895   0
    2  618.3216892  590.5189874  462.3287370   0.5000   0.5000  -0.5000    1.5820565    1.5841841   -1.5816895   0
    2  616.7308323  592.1445803  463.1973284   0.5000   0.5000  -0.5000    1.5820565    1.5841841   -1.5816895   0
    2  615.1223073  593.0640627  464.2722360   0.5000   0.5000  -0.5000    1.5820565    1.5841841   -1.5816895   0
    2  614.5685314  593.3303462  466.2983809   0.5000   0.5000  -0.5000    1.5820565    1.5841841   -1.5816895   0
    2  615.1188400  593.2230364  468.0075226   0.5000   0.5000  -0.5000    1.5820565    1.5841841   -1.5816895   0
    2  615.9561437  592.7564877  469.6896096   0.5000   0.5000  -0.5000    1.5820565    1.5841841   -1.5816895   0
    2  615.7989122  592.1306196  472.6562612   0.5000   0.5000  -0.5000    1.5820565    1.5841841   -1.5816895   0
    2  615.2718510  592.2547690  475.3691722   0.5000   0.5000  -0.5000    1.5820565    1.5841841   -1.5816895   0
    2  615.2980394  592.9215344  476.7900877   0.5000   0.5000  -0.5000    1.5820565    1.5841841   -1.5816895   0
    2  615.7951648  592.6836035  478.1167874   0.5000   0.5000  -0.5000    1.5820565    1.5841841   -1.5816895   0
    2  616.7797619  591.7172139  479.8208948   0.5000   0.5000  -0.5000    1.5820565    1.5841841   -1.5816895   0
    2  617.8035854  591.1549265  481.9285921   0.5000   0.5000  -0.5000    1.5820565    1.5841841   -1.5816895   0
    2  618.2862059  592.0156916  484.0265332   0.5000   0.5000  -0.5000    1.5820565    1.5841841   -1.5816895   0
    2  617.5297270  593.7928159  485.2817074   0.5000   0.5000  -0.5000    1.5820565    1.5841841   -1.5816895   0
    2  615.1932146  594.8487913  485.6955543   0.5000   0.5000  -0.5000    1.5820565    1.5841841   -1.5816895   0
    2  612.7064270  595.3179359  485.4777710   0.5000   0.5000  -0.5000    1.5820565    1.5841841   -1.5816895   0
    2  610.4299842  595.6390582  484.9813355   0.5000   0.5000  -0.5000    1.5820565    1.5841841   -1.5816895   0
    2  607.6986822  595.9585886  484.7449572   0.5000   0.5000  -0.5000    1.5820565    1.5841841   -1.5816895   0
    2  605.5264180  596.7320849  485.2000416   0.5000   0.5000  -0.5000    1.5820565    1.5841841   -1.5816895   0
    2  604.2236096  597.5202605  486.6426679   0.5000   0.5000  -0.5000    1.5820565    1.5841841   -1.5816895   0
    2  602.9043595  598.2496631  488.2059613   0.5000   0.5000  -0.5000    1.5820565    1.5841841   -1.5816895   0
    2  601.4814786  599.3324858  489.2154949   0.5000   0.5000  -0.5000    1.5820565    1.5841841   -1.5816895   0
    2  600.4162183  600.4312821  490.3231634   0.5000   0.5000  -0.5000    1.5820565    1.5841841   -1.5816895   0
    2  599.7341421  601.5098808  491.8659708   0.5000   0.5000  -0.5000    1.5820565    1.5841841   -1.5816895   0
    2  598.5353160  602.7472621  493.2980170   0.5000   0.5000  -0.5000    1.5820565    1.5841841   -1.5816895   0
    2  596.5031456  604.0501459  494.3521771   0.5000   0.5000  -0.5000    1.5820565    1.5841841   -1.5816895   0
    2  594.8792446  605.1729804  495.9533464   0.5000   0.5000  -0.5000    1.5820565    1.5841841   -1.5816895   0
    2  594.5645955  605.8298345  498.2703778   0.5000   0.5000  -0.5000    1.5820565    1.5841841   -1.5816895   0
    2  595.0093199  606.5640805  500.4230850   0.5000   0.5000  -0.5000    1.5820565    1.5841841   -1.5816895   0
    2  594.5893830  607.8624638  502.1467802   0.5000   0.5000  -0.5000    1.5820565    1.5841841   -1.5816895   0
    2  592.3778105  608.9752463  503.0372596   0.5000   0.5000  -0.5000    1.5820565    1.5841841   -1.5816895   0
    2  589.2331787  609.2013136  503.0401393   0.5000   0.5000  -0.5000    1.5820565    1.5841841   -1.5816895   0
    2  586.5840545  609.0123199  502.3700240   0.5000   0.5000  -0.5000    1.5820565    1.5841841   -1.5816895   0
    2  584.5148157  608.7818110  501.3886220   0.5000   0.5000  -0.5000    1.5820565    1.5841841   -1.5816895   0
    2  582.7272998  608.5433000  499.9835723   0.5000   0.5000  -0.5000    1.5820565    1.5841841   -1.5816895   0
    2  581.6604576  608.4057913  497.9429516   0.5000   0.5000  -0.5000    1.5820565    1.5841841   -1.5816895   0
    2  580.5676205  608.0284418  496.7357344   0.5000   0.5000  -0.5000    1.5820565    1.5841841   -1.5816895   0
    2  579.2325561  607.2791784  496.1546686   0.5000   0.5000  -0.5000    1.5820565    1.5841841   -1.5816895   0
    2  578.2675086  606.8200829  495.1166513   0.5000   0.5000  -0.5000    1.5820565    1.5841841   -1.5816895   0
    2  577.4371176  607.2701637  494.7743798   0.5000   0.5000  -0.5000    1.5820565    1.5841841   -1.5816895   0
    2  576.3147135  607.8561146  495.7902637   0.5000   0.5000  -0.5000    1.5820565    1.5841841   -1.5816895   0
    2  574.9676515  608.3609395  497.1147399   0.5000   0.5000  -0.5000    1.5820565    1.5841841   -1.5816895   0
    2  574.3762123  609.4266359  498.6606767   0.5000   0.5000  -0.5000    1.5820565    1.5841841   -1.5816895   0
    2  573.8247831  610.2517262  500.5191447   0.5000   0.5000  -0.5000    1.5820565    1.5841841   -1.5816895   0
    2  571.7721360  610.6193115  501.4438058   0.5000   0.5000  -0.5000    1.5820565    1.5841841   -1.5816895   0
    2  569.4009746  611.1400197  501.0327041   0.5000   0.5000  -0.5000    1.5820565    1.5841841   -1.5816895   0
    2  567.8247286  612.1557389  499.8715406   0.5000   0.5000  -0.5000    1.5820565    1.5841841   -1.5816895   0
    2  566.3427976  613.3425427  498.8415431   0.5000   0.5000  -0.5000    1.5820565    1.5841841   -1.5816895   0
    2  564.4118401  613.7769664  498.3660792   0.5000   0.5000  -0.5000    1.5820565    1.5841841   -1.5816895   0
    2  562.2250634  613.3204204  498.4163724   0.5000   0.5000  -0.5000    1.5820565    1.5841841   -1.5816895   0
    2  560.5161447  612.6929197  499.1254116   0.5000   0.5000  -0.5000    1.5820565    1.5841841   -1.5816895   0
    2  559.7973178  613.1281474  500.3576127   0.5000   0.5000  -0.5000    1.5820565    1.5841841   -1.5816895   0
    2  559.6274798  614.6795858  501.5401147   0.5000   0.5000  -0.5000    1.5820565    1.5841841   -1.5816895   0
    2  558.6540665  616.0996985  502.2846333   0.5000   0.5000  -0.5000    1.5820565    1.5841841   -1.5816895   0
    2  556.5312214  616.6493293  503.0715213   0.5000   0.5000  -0.5000    1.5820565    1.5841841   -1.5816895   0
    2  554.6063165  616.8649219  504.3353227   0.5000   0.5000  -0.5000    1.5820565    1.5841841   -1.5816895   0
    2  553.3300004  617.3334639  505.7262965   0.5000   0.5000  -0.5000    1.5820565    1.5841841   -1.5816895   0
    2  551.9784059  618.0861443  507.1746245   0.5000   0.5000  -0.5000    1.5820565    1.5841841   -1.5816895   0
    2  550.0531197  619.0192848  508.4896567   0.5000   0.5000  -0.5000    1.5820565    1.5841841   -1.5816895   0
    2  547.5731926  619.4413453  508.6114831   0.5000   0.5000  -0.5000    1.5820565    1.5841841   -1.5816895   0
    2  545.3549041  619.4816673  507.7084481   0.5000   0.5000  -0.5000    1.5820565    1.5841841   -1.5816895   0
    2  543.6464605  619.4218298  507.3448345   0.5000   0.5000  -0.5000    1.5820565    1.5841841   -1.5816895   0
    2  541.5237187  619.1907576  507.9693229   0.5000   0.5000  -0.5000    1.5820565    1.5841841   -1.5816895   0
    2  538.6359845  619.2687750  508.5826945   0.5000   0.5000  -0.5000    1.5820565    1.5841841   -1.5816895   0
    2  535.4324576  619.3753288  508.6912222   0.5000   0.5000  -0.5000    1.5820565    1.5841841   -1.5816895   0
    2  532.4934369  619.5900541  508.8763782   0.5000   0.5000  -0.5000    1.5820565    1.5841841   -1.5816895   0
    2  530.4026279  620.4093239  509.0372832   0.5000   0.5000  -0.5000    1.5820565    1.5841841   -1.5816895   0
    2  529.3263932  621.8045367  508.7657428   0.5000   0.5000  -0.5000    1.5820565    1.5841841   -1.5816895   0
    2  529.0312560  623.1746898  508.9985305   0.5000   0.5000  -0.5000    1.5820565    1.5841841   -1.5816895   0
    2  528.3892428  623.1996716  510.1528676   0.5000   0.5000  -0.5000    1.5820565    1.5841841   -1.5816895   0
    2  527.2189918  622.0616872  511.5823046   0.5000   0.5000  -0.5000    1.5820565    1.5841841   -1.5816895   0
    2  527.1408763  621.0121227  513.1243073   0.5000   0.5000  -0.5000    1.5820565    1.5841841   -1.5816895   0
    2  528.0184604  620.1917087  514.5629553   0.5000   0.5000  -0.5000    1.5820565    1.5841841   -1.5816895   0
    2  528.5918807  619.4318144  516.3637387   0.5000   0.5000  -0.5000    1.5820565    1.5841841   -1.5816895   0
    2  528.8622727  619.0604510  519.1347095   0.5000   0.5000  -0.5000    1.5820565    1.5841841   -1.5816895   0
    2  529.6969125  619.3124151  521.5936398   0.5000   0.5000  -0.5000    1.5820565    1.5841841   -1.5816895   0
    2  531.2676637  619.7522865  523.0231667   0.5000   0.5000  -0.5000    1.5820565    1.5841841   -1.5816895   0
    2  532.7140934  619.1602596  524.3824795   0.5000   0.5000  -0.5000    1.5820565    1.5841841   -1.5816895   0
    2  533.5073535  618.3376702  525.4197140   0.5000   0.5000  -0.5000    1.5820565    1.5841841   -1.5816895   0
    2  533.4844541  619.4777871  525.1821621   0.5000   0.5000  -0.5000    1.5820565    1.5841841   -1.5816895   0
    2  532.4387967  621.1905877  524.6928510   0.5000   0.5000  -0.5000    1.5820565    1.5841841   -1.5816895   0
    2  530.7269458  621.9312381  525.3857606   0.5000   0.5000  -0.5000    1.5820565    1.5841841   -1.5816895   0
    2  528.3212533  622.6986587  526.5351492   0.5000   0.5000  -0.5000    1.5820565    1.5841841   -1.5816895   0
    2  525.1675165  623.5133520  526.6932622   0.5000   0.5000  -0.5000    1.5820565    1.5841841   -1.5816895   0
    2  522.4245219  623.9733737  526.2169306   0.5000   0.5000  -0.5000    1.5820565    1.5841841   -1.5816895   0
    2  520.4031921  624.2412478  526.4966238   0.5000   0.5000  -0.5000    1.5820565    1.5841841   -1.5816895   0
    2  518.6721357  624.2803577  527.7928557   0.5000   0.5000  -0.5000    1.5820565    1.5841841   -1.5816895   0
    2  517.1291730  624.4425380  529.4497448   0.5000   0.5000  -0.5000    1.5820565    1.5841841   -1.5816895   0
    2  515.4752435  625.2703043  530.4558301   0.5000   0.5000  -0.5000    1.5820565    1.5841841   -1.5816895   0
    2  513.6219949  625.9382157  530.7709721   0.5000   0.5000  -0.5000    1.5820565    1.5841841   -1.5816895   0
    2  511.7724320  626.1005268  531.7401876   0.5000   0.5000  -0.5000    1.5820565    1.5841841   -1.5816895   0
    2  510.0080287  626.7506628  533.4293007   0.5000   0.5000  -0.5000    1.5820565    1.5841841   -1.5816895   0
    2  508.3891469  627.7425946  534.8174102   0.5000   0.5000  -0.5000    1.5820565    1.5841841   -1.5816895   0
    2  506.5406598  628.3151568  535.4342330   0.5000   0.5000  -0.5000    1.5820565    1.5841841   -1.5816895   0
    2  504.4055289  628.2902332  535.5963651   0.5000   0.5000  -0.5000    1.5820565    1.5841841   -1.5816895   0
    2  502.4592723  627.9649672  535.8516180   0.5000   0.5000  -0.5000    1.5820565    1.5841841   -1.5816895   0
    2  500.7038233  627.9338365  536.5395900   0.5000   0.5000  -0.5000    1.5820565    1.5841841   -1.5816895   0
    2  499.1013350  628.4833161  537.8038342   0.5000   0.5000  -0.5000    1.5820565    1.5841841   -1.5816895   0
    2  497.6377556  629.1519595  539.4118000   0.5000   0.5000  -0.5000    1.5820565    1.5841841   -1.5816895   0
    2  496.4198040  629.4545217  541.3367760   0.5000   0.5000  -0.5000    1.5820565    1.5841841   -1.5816895   0
    2  495.5031668  629.3068220  543.4612100   0.5000   0.5000  -0.5000    1.5820565    1.5841841   -1.5816895   0
    2  495.3172147  628.9566094  545.3524539   0.5000   0.5000  -0.5000    1.5820565    1.5841841   -1.5816895   0
    2  496.0922936  628.4034393  546.9930348   0.5000   0.5000  -0.5000    1.5820565    1.5841841   -1.5816895   0
    2  496.7345733  627.6136850  549.0897480   0.5000   0.5000  -0.5000    1.5820565    1.5841841   -1.5816895   0
    2  496.5743853  627.8078991  551.6769442   0.5000   0.5000  -0.5000    1.5820565    1.5841841   -1.5816895   0
    2  495.7274476  629.2494623  553.7871368   0.5000   0.5000  -0.5000    1.5820565    1.5841841   -1.5816895   0
    2  494.7666769  629.9737087  555.3812724   0.5000   0.5000  -0.5000    1.5820565    1.5841841   -1.5816895   0
    2  494.0864792  629.5696787  557.0243536   0.5000   0.5000  -0.5000    1.5820565    1.5841841   -1.5816895   0
    2  493.0125929  629.7331759  558.4957222   0.5000   0.5000  -0.5000    1.5820565    1.5841841   -1.5816895   0
    2  492.0161771  631.0320138  559.7829377   0.5000   0.5000  -0.5000    1.5820565    1.5841841   -1.5816895   0
    2  491.8764058  632.2875381  561.4336756   0.5000   0.5000  -0.5000    1.5820565    1.5841841   -1.5816895   0
    2  491.8659943  632.4869678  563.3180073   0.5000   0.5000  -0.5000    1.5820565    1.5841841   -1.5816895   0
    2  492.0525591  632.1857759  565.2140871   0.5000   0.5000  -0.5000    1.5820565    1.5841841   -1.5816895   0
    2  492.4610107  631.6284821  566.9328266   0.5000   0.5000  -0.5000    1.5820565    1.5841841   -1.5816895   0
    2  492.5986994  630.5953736  568.3109394   0.5000   0.5000  -0.5000    1.5820565    1.5841841   -1.5816895   0
    2  493.3655380  629.8795137  569.5849995   0.5000   0.5000  -0.5000    1.5820565    1.5841841   -1.5816895   0
    2  495.0458196  629.5099942  570.6731294   0.5000   0.5000  -0.5000    1.5820565    1.5841841   -1.5816895   0
    2  496.6183294  628.8825966  572.0070273   0.5000   0.5000  -0.5000    1.5820565    1.5841841   -1.5816895   0
    2  497.6616240  628.4023719  574.1463718   0.5000   0.5000  -0.5000    1.5820565    1.5841841   -1.5816895   0
    2  498.2207685  628.5445039  576.6888832   0.5000   0.5000  -0.5000    1.5820565    1.5841841   -1.5816895   0
    2  498.1958385  629.4749380  578.8147377   0.5000   0.5000  -0.5000    1.5820565    1.5841841   -1.5816895   0
    2  498.0588164  630.9535130  580.4854740   0.5000   0.5000  -0.5000    1.5820565    1.5841841   -1.5816895   0
    2  498.4708068  632.4095939  582.2014053   0.5000   0.5000  -0.5000    1.5820565    1.5841841   -1.5816895   0
    2  499.3461588  633.7458267  583.4104884   0.5000   0.5000  -0.5000    1.5820565    1.5841841   -1.5816895   0
    2  500.1104132  634.7380213  584.5309875   0.5000   0.5000  -0.5000    1.5820565    1.5841841   -1.5816895   0
    2  500.4093889  635.7401173  586.3079703   0.5000   0.5000  -0.5000    1.5820565    1.5841841   -1.5816895   0
    2  500.0280267  637.0332108  587.7504172   0.5000   0.5000  -0.5000    1.5820565    1.5841841   -1.5816895   0
    2  498.9831803  638.6603038  588.6361897   0.5000   0.5000  -0.5000    1.5820565    1.5841841   -1.5816895   0
    2  498.6246433  640.7541212  589.7321512   0.5000   0.5000  -0.5000    1.5820565    1.5841841   -1.5816895   0
    2  499.5648889  642.3201782  591.1068395   0.5000   0.5000  -0.5000    1.5820565    1.5841841   -1.5816895   0
    2  501.2232344  642.8921077  592.4506310   0.5000   0.5000  -0.5000    1.5820565    1.5841841   -1.5816895   0
    2  502.8623191  642.9158764  594.1095941   0.5000   0.5000  -0.5000    1.5820565    1.5841841   -1.5816895   0
    2  503.9421326  643.2269910  595.7701749   0.5000   0.5000  -0.5000    1.5820565    1.5841841   -1.5816895   0
    2  504.8958051  644.5866507  596.7496949   0.5000   0.5000  -0.5000    1.5820565    1.5841841   -1.5816895   0
    2  505.4694776  647.1868125  597.4510284   0.5000   0.5000  -0.5000    1.5820565    1.5841841   -1.5816895   0
    2  505.8582737  650.2585662  597.3455027   0.5000   0.5000  -0.5000    1.5820565    1.5841841   -1.5816895   0
    2  507.2719328  652.2768694  596.6638608   0.5000   0.5000  -0.5000    1.5820565    1.5841841   -1.5816895   0
    2  509.4444538  653.1591642  596.5549612   0.5000   0.5000  -0.5000    1.5820565    1.5841841   -1.5816895   0
    2  511.0413407  654.3427494  597.1526042   0.5000   0.5000  -0.5000    1.5820565    1.5841841   -1.5816895   0
    2  511.6230087  656.6807974  598.8829384   0.5000   0.5000  -0.5000    1.5820565    1.5841841   -1.5816895   0
    3  666.1849724  449.3066677  101.1279211   0.5000   0.5000   0.5000    1.5803877    1.5805573    1.5824576   1
    3  664.7951734  449.9115419  101.5564925   0.5000   0.5000   0.5000    1.5803877    1.5805573    1.5824576   1
    3  663.4482079  450.3455120  103.3595626   0.5000   0.5000   0.5000    1.5803877    1.5805573    1.5824576   1
    3  661.8992689  450.8664106  105.7174221   0.5000   0.5000   0.5000    1.5803877    1.5805573    1.5824576   1
    3  659.9451599  451.5282995  107.0514284   0.5000   0.5000   0.5000    1.5803877    1.5805573    1.5824576   1
    3  658.0727625  452.5538577  107.1670877   0.5000   0.5000   0.5000    1.5803877    1.5805573    1.5824576   1
    3  656.2597836  453.8332321  106.7302835   0.5000   0.5000   0.5000    1.5803877    1.5805573    1.5824576   1
    3  654.4132029  455.0003650  106.3526138   0.5000   0.5000   0.5000    1.5803877    1.5805573    1.5824576   1
    3  652.8984584  456.4061429  106.2077628   0.5000   0.5000   0.5000    1.5803877    1.5805573    1.5824576   1
    3  651.4450147  457.7590409  105.5906359   0.5000   0.5000   0.5000    1.5803877    1.5805573    1.5824576   1
    3  650.6576908  459.1599662  104.2333627   0.5000   0.5000   0.5000    1.5803877    1.5805573    1.5824576   1
    3  651.1924597  460.6713817  102.8807790   0.5000   0.5000   0.5000    1.5803877    1.5805573    1.5824576   1
    3  652.5948111  461.3916825  101.4468619   0.5000   0.5000   0.5000    1.5803877    1.5805573    1.5824576   1
    3  654.0001460  461.3286309   99.6341993   0.5000   0.5000   0.5000    1.5803877    1.5805573    1.5824576   1
    3  654.8162094  460.9619012   97.8305651   0.5000   0.5000   0.5000    1.5803877    1.5805573    1.5824576   1
    3  655.6029961  460.5494748   96.1828211   0.5000   0.5000   0.5000    1.5803877    1.5805573    1.5824576   1
    3  656.7394023  460.0303136   95.7299290   0.5000   0.5000   0.5000    1.5803877    1.5805573    1.5824576   1
    3  658.0050879  458.9661475   96.5727509   0.5000   0.5000   0.5000    1.5803877    1.5805573    1.5824576   1
    3  659.6783597  457.2408497   97.1330490   0.5000   0.5000   0.5000    1.5803877    1.5805573    1.5824576   1
    3  661.2244997  455.0263952   97.4585542   0.5000   0.5000   0.5000    1.5803877    1.5805573    1.5824576   1
    3  662.1969288  452.8694760   98.3164189   0.5000   0.5000   0.5000    1.5803877    1.5805573    1.5824576   1
    3  663.3300005  451.5281181   99.4543516   0.5000   0.5000   0.5000    1.5803877    1.5805573    1.5824576   1
    3  664.7506710  450.5833773  100.3098430   0.5000   0.5000   0.5000    1.5803877    1.5805573    1.5824576   1
    3  666.1849724  449.3066677  101.1279211   0.5000   0.5000   0.5000    1.5803877    1.5805573    1.5824576   1
    4  134.5468571   79.6309087  498.1114999  -1.0000  -0.0000  -0.0000   -3.1641842   -0.0005409    0.0017616   0
    4  132.8083359   78.7292903  499.4728129  -1.0000  -0.0000  -0.0000   -3.1641842   -0.0005409    0.0017616   0
    4  131.5937377   78.8968049  501.1571987  -1.0000  -0.0000  -0.0000   -3.1641842   -0.0005409    0.0017616   0
    4  130.3732544   78.5997966  502.6879838  -1.0000  -0.0000  -0.0000   -3.1641842   -0.0005409    0.0017616   0
    4  129.0617714   76.8274923  503.8005076  -1.0000  -0.0000  -0.0000   -3.1641842   -0.0005409    0.0017616   0
    4  127.7471050   75.1372984  504.8757666  -1.0000  -0.0000  -0.0000   -3.1641842   -0.0005409    0.0017616   0
    4  126.1984518   74.5716753  506.0921749  -1.0000  -0.0000  -0.0000   -3.1641842   -0.0005409    0.0017616   0
    4  124.8795819   74.6262649  507.8759898  -1.0000  -0.0000  -0.0000   -3.1641842   -0.0005409    0.0017616   0
    4  123.9393804   74.5495568  510.1268100  -1.0000  -0.0000  -0.0000   -3.1641842   -0.0005409    0.0017616   0
    4  123.1497736   74.1984296  512.2506360  -1.0000  -0.0000  -0.0000   -3.1641842   -0.0005409    0.0017616   0
    4  122.3816776   73.5209065  514.1973395  -1.0000  -0.0000  -0.0000   -3.1641842   -0.0005409    0.0017616   0
    4  121.5165559   73.0686921  516.0869957  -1.0000  -0.0000  -0.0000   -3.1641842   -0.0005409    0.0017616   0
    4  120.5893446   73.7965208  517.6950963  -1.0000  -0.0000  -0.0000   -3.1641842   -0.0005409    0.0017616   0
    4  119.5239341   74.5704054  519.0702068  -1.0000  -0.0000  -0.0000   -3.1641842   -0.0005409    0.0017616   0
    4  118.4713905   74.7544501  520.7642959  -1.0000  -0.0000  -0.0000   -3.1641842   -0.0005409    0.0017616   0
    4  117.7298739   75.3863777  522.7964657  -1.0000  -0.0000  -0.0000   -3.1641842   -0.0005409    0.0017616   0
    4  117.1843998   76.4049595  524.3175424  -1.0000  -0.0000  -0.0000   -3.1641842   -0.0005409    0.0017616   0
    4  116.4606081   77.3106642  525.1620752  -1.0000  -0.0000  -0.0000   -3.1641842   -0.0005409    0.0017616   0
    4  115.8764285   77.7899286  526.5446428  -1.0000  -0.0000  -0.0000   -3.1641842   -0.0005409    0.0017616   0
    5  143.4096111  653.1538334   12.1233778   0.5000   0.5000  -0.5000    1.5820565    1.5841841   -1.5816895   0
    5  143.7369274  651.5845430   13.2418629   0.5000   0.5000  -0.5000    1.5820565    1.5841841   -1.5816895   0
    5  142.8852143  650.6951784   15.8679349   0.5000   0.5000  -0.5000    1.5820565    1.5841841   -1.5816895   0
    5  142.2045613  650.7553878   19.1821444   0.5000   0.5000  -0.5000    1.5820565    1.5841841   -1.5816895   0
    5  141.4610125  651.2482409   21.9989505   0.5000   0.5000  -0.5000    1.5820565    1.5841841   -1.5816895   0
    5  140.1778292  651.2488772   24.5827529   0.5000   0.5000  -0.5000    1.5820565    1.5841841   -1.5816895   0
    5  139.7291142  651.5839458   26.9156005   0.5000   0.5000  -0.5000    1.5820565    1.5841841   -1.5816895   0
    5  140.2538729  653.0488946   28.1628592   0.5000   0.5000  -0.5000    1.5820565    1.5841841   -1.5816895   0
    5  141.0353095  654.1288357   29.0060551   0.5000   0.5000  -0.5000    1.5820565    1.5841841   -1.5816895   0
    5  141.7436980  653.7736028   31.0194755   0.5000   0.5000  -0.5000    1.5820565    1.5841841   -1.5816895   0
    5  141.7517749  653.4166071   33.7051738   0.5000   0.5000  -0.5000    1.5820565    1.5841841   -1.5816895   0
    5  141.1025452  654.3285356   35.4543297   0.5000   0.5000  -0.5000    1.5820565    1.5841841   -1.5816895   0
    5  140.3367235  656.0181100   36.3761785   0.5000   0.5000  -0.5000    1.5820565    1.5841841   -1.5816895   0
    5  139.2142098  657.9818735   36.6607819   0.5000   0.5000  -0.5000    1.5820565    1.5841841   -1.5816895   0
    5  137.7515821  659.8440336   35.8673599   0.5000   0.5000  -0.5000    1.5820565    1.5841841   -1.5816895   0
    5  136.7476597  661.8819406   34.4978031   0.5000   0.5000  -0.5000    1.5820565    1.5841841   -1.5816895   0
    5  136.1021700  663.6233645   33.8213408   0.5000   0.5000  -0.5000    1.5820565    1.5841841   -1.5816895   0
    5  135.3399256  663.1929959   34.0480055   0.5000   0.5000  -0.5000    1.5820565    1.5841841   -1.5816895   0
    5  134.6880465  661.5376084   33.4267938   0.5000   0.5000  -0.5000    1.5820565    1.5841841   -1.5816895   0
    5  133.8582673  660.3878581   31.4475784   0.5000   0.5000  -0.5000    1.5820565    1.5841841   -1.5816895   0
    5  132.3713298  659.9778299   29.7228625   0.5000   0.5000  -0.5000    1.5820565    1.5841841   -1.5816895   0
    5  130.4370391  660.4393588   28.8216239   0.5000   0.5000  -0.5000    1.5820565    1.5841841   -1.5816895   0
    5  128.9014032  660.9489496   27.3693427   0.5000   0.5000  -0.5000    1.5820565    1.5841841   -1.5816895   0
    5  128.5429474  660.5200431   25.0190615   0.5000   0.5000  -0.5000    1.5820565    1.5841841   -1.5816895   0
    5  128.9237182  659.4727829   22.7982825   0.5000   0.5000  -0.5000    1.5820565    1.5841841   -1.5816895   0
    5  128.8756583  658.4885228   20.9058334   0.5000   0.5000  -0.5000    1.5820565    1.5841841   -1.5816895   0
    5  128.1088627  657.5846382   19.1400800   0.5000   0.5000  -0.5000    1.5820565    1.5841841   -1.5816895   0
    5  127.6159562  657.0666692   17.0883906   0.5000   0.5000  -0.5000    1.5820565    1.5841841   -1.5816895   0