ITEM: TIMESTEP
0
ITEM: NUMBER OF ATOMS
7446
ITEM: BOX BOUNDS pp pp pp 
0.0 695.751503
0.0 697.015822
0.0 698.054491
ITEM: ATOMS id x y z tbx tby tbz sbx sby sbz loop
    0   76.8226191  469.0103818  299.4642841  -0.5000  -0.5000   0.5000   -1.5828437   -1.5847037    1.5805218   0
    0   74.9568043  468.1362387  297.4249440  -0.5000  -0.5000   0.5000   -1.5828437   -1.5847037    1.5805218   0
    0   73.4081941  467.8727911  295.9922503  -0.5000  -0.5000   0.5000   -1.5828437   -1.5847037    1.5805218   0
    0   71.7547701  467.8778748  294.6334043  -0.5000  -0.5000   0.5000   -1.5828437   -1.5847037    1.5805218   0
    0   69.9627354  468.5039777  293.7570025  -0.5000  -0.5000   0.5000   -1.5828437   -1.5847037    1.5805218   0
    0   68.7705893  470.3658838  294.2151508  -0.5000  -0.5000   0.5000   -1.5828437   -1.5847037    1.5805218   0
    0   68.7671827  472.4883386  295.8065517  -0.5000  -0.5000   0.5000   -1.5828437   -1.5847037    1.5805218   0
    0   69.6987463  473.3225711  297.8417999  -0.5000  -0.5000   0.5000   -1.5828437   -1.5847037    1.5805218   0
    0   71.1012246  472.7165149  299.4576232  -0.5000  -0.5000   0.5000   -1.5828437   -1.5847037    1.5805218   0
    0   72.6817261  471.3793547  299.8058452  -0.5000  -0.5000   0.5000   -1.5828437   -1.5847037    1.5805218   0
    0   74.4199378  470.0086036  299.4693948  -0.5000  -0.5000   0.5000   -1.5828437   -1.5847037    1.5805218   0
    0   76.8226191  469.0103818  299.4642841  -0.5000  -0.5000   0.5000   -1.5828437   -1.5847037    1.5805218   0
    1  442.8845556  624.1807302  542.9389286  -0.5000  -0.5000   0.5000   -1.5828437   -1.5847037    1.5805218   0
    1  444.7451354  622.6971792  544.8687208  -0.5000  -0.5000   0.5000   -1.5828437   -1.5847037    1.5805218   0
    1  446.5229201  621.3885477  546.3941649  -0.5000  -0.5000   0.5000   -1.5828437   -1.5847037    1.5805218   0
    1  447.6487576  619.7375492  546.9775167  -0.5000  -0.5000   0.5000   -1.5828437   -1.5847037    1.5805218   0
    1  448.2518932  617.6132206  546.8606894  -0.5000  -0.5000   0.5000   -1.5828437   -1.5847037    1.5805218   0
    1  448.8682883  615.4680817  546.3077732  -0.5000  -0.5000   0.5000   -1.5828437   -1.5847037    1.5805218   0
    1  449.7842199  613.7806999  545.4436074  -0.5000  -0.5000   0.5000   -1.5828437   -1.5847037    1.5805218   0
    1  450.7230124  612.3085837  544.5795651  -0.5000  -0.5000   0.5000   -1.5828437   -1.5847037    1.5805218   0
    1  451.7491795  610.9593913  543.5348566  -0.5000  -0.5000   0.5000   -1.5828437   -1.5847037    1.5805218   0
    1  452.8219957  609.5272969  542.4620670  -0.5000  -0.5000   0.5000   -1.5828437   -1.5847037    1.5805218   0
    1  453.1299651  607.8329885  540.9926761  -0.5000  -0.5000   0.5000   -1.5828437   -1.5847037    1.5805218   0
    1  453.5139065  606.6613675  538.9075190  -0.5000  -0.5000   0.5000   -1.5828437   -1.5847037    1.5805218   0
    1  454.8421414  605.9706424  537.2888802  -0.5000  -0.5000   0.5000   -1.5828437   -1.5847037    1.5805218   0
    1  456.1143457  604.9949352  536.1760364  -0.5000  -0.5000   0.5000   -1.5828437   -1.5847037    1.5805218   0
    1  457.2387436  603.7991809  535.1023508  -0.5000  -0.5000   0.5000   -1.5828437   -1.5847037    1.5805218   0
    1  457.9402802  602.6888150  533.4311893  -0.5000  -0.5000   0.5000   -1.5828437   -1.5847037    1.5805218   0
    1  457.7356055  601.6398303  530.9679708  -0.5000  -0.5000   0.5000   -1.5828437   -1.5847037    1.5805218   0
    1  457.7246168  600.8374177  528.4885301  -0.5000  -0.5000   0.5000   -1.5828437   -1.5847037    1.5805218   0
    1  458.9572060  600.3356830  526.5663315  -0.5000  -0.5000   0.5000   -1.5828437   -1.5847037    1.5805218   0
    1  461.2604442  600.1905852  525.8262547  -0.5000  -0.5000   0.5000   -1.5828437   -1.5847037    1.5805218   0
    1  463.6879667  600.8497829  525.7914954  -0.5000  -0.5000   0.5000   -1.5828437   -1.5847037    1.5805218   0
    1  465.8836533  601.5150168  525.6088478  -0.5000  -0.5000   0.5000   -1.5828437   -1.5847037    1.5805218   0
    1  467.6192700  600.8910135  524.9686692  -0.5000  -0.5000   0.5000   -1.5828437   -1.5847037    1.5805218   0
    1  468.4940664  599.2879728  523.7435533  -0.5000  -0.5000   0.5000   -1.5828437   -1.5847037    1.5805218   0
    1  469.0109960  598.0204692  522.0245413  -0.5000  -0.5000   0.5000   -1.5828437   -1.5847037    1.5805218   0
    1  469.1864274  597.4695572  519.7565697  -0.5000  -0.5000   0.5000   -1.5828437   -1.5847037    1.5805218   0
    1  468.8766469  596.7830787  517.5080420  -0.5000  -0.5000   0.5000   -1.5828437   -1.5847037    1.5805218   0
    1  468.4325601  596.3758975  515.8625887  -0.5000  -0.5000   0.5000   -1.5828437   -1.5847037    1.5805218   0
    1  467.7399407  596.8069532  514.5679576  -0.5000  -0.5000   0.5000   -1.5828437   -1.5847037    1.5805218   0
    1  467.8134784  597.1961662  513.3437593  -0.5000  -0.5000   0.5000   -1.5828437   -1.5847037    1.5805218   0
    1  469.4151261  597.3209835  512.4674885  -0.5000  -0.5000   0.5000   -1.5828437   -1.5847037    1.5805218   0
    1  471.4290121  597.5650882  512.2124157  -0.5000  -0.5000   0.5000   -1.5828437   -1.5847037    1.5805218   0
    1  473.2061053  597.5566622  512.7353853  -0.5000  -0.5000   0.5000   -1.5828437   -1.5847037    1.5805218   0
    1  474.8544417  596.8863567  513.4007414  -0.5000  -0.5000   0.5000   -1.5828437   -1.5847037    1.5805218   0
    1  476.7544055  596.6577530  513.2404807  -0.5000  -0.5000   0.5000   -1.5828437   -1.5847037    1.5805218   0
    1  479.1587780  597.3540621  512.8248477  -0.5000  -0.5000   0.5000   -1.5828437   -1.5847037    1.5805218   0
    1  481.5497848  597.9304478  512.5794638  -0.5000  -0.5000   0.5000   -1.5828437   -1.5847037    1.5805218   0
    1  483.6880566  598.1566371  512.1715117  -0.5000  -0.5000   0.5000   -1.5828437   -1.5847037    1.5805218   0
    1  485.6930530  598.7618552  512.3491029  -0.5000  -0.5000   0.5000   -1.5828437   -1.5847037    1.5805218   0
    1  487.2786444  600.2311712  513.0683421  -0.5000  -0.5000   0.5000   -1.5828437   -1.5847037    1.5805218   0
    1  487.9620448  602.1908909  513.4895878  -0.5000  -0.5000   0.5000   -1.5828437   -1.5847037    1.5805218   0
    1  488.2941956  604.0501072  514.3210176  -0.5000  -0.5000   0.5000   -1.5828437   -1.5847037    1.5805218   0
    1  489.5940121  605.0468667  515.6517985  -0.5000  -0.5000   0.5000   -1.5828437   -1.5847037    1.5805218   0
    1  492.0762178  605.3184643  516.5082124  -0.5000  -0.5000   0.5000   -1.5828437   -1.5847037    1.5805218   0
    1  495.0045589  606.2604039  516.7932343  -0.5000  -0.5000   0.5000   -1.5828437   -1.5847037    1.5805218   0
    1  496.8854264  608.5740377  516.8112333  -0.5000  -0.5000   0.5000   -1.5828437   -1.5847037    1.5805218   0
    1  497.2927557  611.1256411  517.0308077  -0.5000  -0.5000   0.5000   -1.5828437   -1.5847037    1.5805218   0
    1  497.1753818  612.8454711  517.8214952  -0.5000  -0.5000   0.5000   -1.5828437   -1.5847037    1.5805218   0
    1  496.2906762  613.8053027  518.5149876  -0.5000  -0.5000   0.5000   -1.5828437   -1.5847037    1.5805218   0
    1  494.6101143  614.0395536  518.4208864  -0.5000  -0.5000   0.5000   -1.5828437   -1.5847037    1.5805218   0
    1  492.8699250  614.2952158  517.5606430  -0.5000  -0.5000   0.5000   -1.5828437   -1.5847037    1.5805218   0
    1  491.0737493  615.0625428  516.8023079  -0.5000  -0.5000   0.5000   -1.5828437   -1.5847037    1.5805218   0
    1  489.3238715  615.9287886  517.1543686  -0.5000  -0.5000   0.5000   -1.5828437   -1.5847037    1.5805218   0
    1  488.5231636  617.1089471  518.1821633  -0.5000  -0.5000   0.5000   -1.5828437   -1.5847037    1.5805218   0
    1  488.7696331  619.3083204  519.2725754  -0.5000  -0.5000   0.5000   -1.5828437   -1.5847037    1.5805218   0
    1  489.1420311  621.8178329  520.3578360  -0.5000  -0.5000   0.5000   -1.5828437   -1.5847037    1.5805218   0
    1  489.9762134  623.3060944  521.0268891  -0.5000  -0.5000   0.5000   -1.5828437   -1.5847037    1.5805218   0
    1  491.7640335  623.6702372  521.3929105  -0.5000  -0.5000   0.5000   -1.5828437   -1.5847037    1.5805218   0
    1  493.3692654  623.5349101  522.3671319  -0.5000  -0.5000   0.5000   -1.5828437   -1.5847037    1.5805218   0
    1  494.8565090  623.4746013  523.4105687  -0.5000  -0.5000   0.5000   -1.5828437   -1.5847037    1.5805218   0
    1  497.2230398  623.3336442  523.6489135  -0.5000  -0.5000   0.5000   -1.5828437   -1.5847037    1.5805218   0
    1  499.5467390  622.5549121  523.2044955  -0.5000  -0.5000   0.5000   -1.5828437   -1.5847037    1.5805218   0
    1  500.8769566  621.1359478  521.8828748  -0.5000  -0.5000   0.5000   -1.5828437   -1.5847037    1.5805218   0
    1  501.9198876  619.9235139  520.2464581  -0.5000  -0.5000   0.5000   -1.5828437   -1.5847037    1.5805218   0
    1  503.4860756  619.1235682  519.4227762  -0.5000  -0.5000   0.5000   -1.5828437   -1.5847037    1.5805218   0
    1  505.8380514  618.2903225  519.6721020  -0.5000  -0.5000   0.5000   -1.5828437   -1.5847037    1.5805218   0
    1  508.2130211  618.0384176  520.4353060  -0.5000  -0.5000   0.5000   -1.5828437   -1.5847037    1.5805218   0
    1  509.6373775  619.0411684  521.1553097  -0.5000  -0.5000   0.5000   -1.5828437   -1.5847037    1.5805218   0
    1  510.8369528  620.7369681  521.7740298  -0.5000  -0.5000   0.5000   -1.5828437   -1.5847037    1.5805218   0
    1  512.5171196  622.2812944  522.3290614  -0.5000  -0.5000   0.5000   -1.5828437   -1.5847037    1.5805218   0
    1  514.4968785  623.0306308  522.4408532  -0.5000  -0.5000   0.5000   -1.5828437   -1.5847037    1.5805218   0
    1  516.5796036  622.5800540  522.2445190  -0.5000  -0.5000   0.5000   -1.5828437   -1.5847037    1.5805218   0
    1  518.7762399  621.9595140  522.2409666  -0.5000  -0.5000   0.5000   -1.5828437   -1.5847037    1.5805218   0
    1  521.3683836  622.1539563  522.1799370  -0.5000  -0.5000   0.5000   -1.5828437   -1.5847037    1.5805218   0
    1  523.8437149  622.2511833  521.5382426  -0.5000  -0.5000   0.5000   -1.5828437   -1.5847037    1.5805218   0
    1  525.7673229  621.8417702  520.3172160  -0.5000  -0.5000   0.5000   -1.5828437   -1.5847037    1.5805218   0
    1  527.7765966  621.4342113  519.5899190  -0.5000  -0.5000   0.5000   -1.5828437   -1.5847037    1.5805218   0
    1  530.0030591  621.3408374  520.0540353  -0.5000  -0.5000   0.5000   -1.5828437   -1.5847037    1.5805218   0
    1  532.1010316  621.5004424  520.2602309  -0.5000  -0.5000   0.5000   -1.5828437   -1.5847037    1.5805218   0
    1  533.8089328  620.8305863  518.6119716  -0.5000  -0.5000   0.5000   -1.5828437   -1.5847037    1.5805218   0
    1  534.7594987  619.0553349  515.9686323  -0.5000  -0.5000   0.5000   -1.5828437   -1.5847037    1.5805218   0
    1  535.1313938  617.9373405  514.9164479  -0.5000  -0.5000   0.5000   -1.5828437   -1.5847037    1.5805218   0
    1  535.4676313  619.0380961  515.7110171  -0.5000  -0.5000   0.5000   -1.5828437   -1.5847037    1.5805218   0
    1  536.6838061  621.0332401  516.0901312  -0.5000  -0.5000   0.5000   -1.5828437   -1.5847037    1.5805218   0
    1  539.2827379  621.7324714  515.7548679  -0.5000  -0.5000   0.5000   -1.5828437   -1.5847037    1.5805218   0
    1  541.5797805  621.1742863  514.6901004  -0.5000  -0.5000   0.5000   -1.5828437   -1.5847037    1.5805218   0
    1  542.5326442  619.9279205  513.1790749  -0.5000  -0.5000   0.5000   -1.5828437   -1.5847037    1.5805218   0
    1  543.2896804  618.4391437  512.2447074  -0.5000  -0.5000   0.5000   -1.5828437   -1.5847037    1.5805218   0
    1  544.1857201  617.1906863  511.1575987  -0.5000  -0.5000   0.5000   -1.5828437   -1.5847037    1.5805218   0
    1  544.7632975  616.1365404  509.7935727  -0.5000  -0.5000   0.5000   -1.5828437   -1.5847037    1.5805218   0
    1  545.0223112  615.4830915  508.5021651  -0.5000  -0.5000   0.5000   -1.5828437   -1.5847037    1.5805218   0
    1  545.4307285  615.3604350  506.8423451  -0.5000  -0.5000   0.5000   -1.5828437   -1.5847037    1.5805218   0
    1  546.0774668  615.2436541  504.8622390  -0.5000  -0.5000   0.5000   -1.5828437   -1.5847037    1.5805218   0
    1  546.8648001  614.7788721  502.8780556  -0.5000  -0.5000   0.5000   -1.5828437   -1.5847037    1.5805218   0
    1  548.8730301  614.3880980  501.4902113  -0.5000  -0.5000   0.5000   -1.5828437   -1.5847037    1.5805218   0
    1  551.9989771  613.9971002  501.1725163  -0.5000  -0.5000   0.5000   -1.5828437   -1.5847037    1.5805218   0
    1  554.3643007  612.9065275  500.7573069  -0.5000  -0.5000   0.5000   -1.5828437   -1.5847037    1.5805218   0
    1  555.4283095  611.3799491  499.2468381  -0.5000  -0.5000   0.5000   -1.5828437   -1.5847037    1.5805218   0
    1  556.1458603  610.2028470  497.5154587  -0.5000  -0.5000   0.5000   -1.5828437   -1.5847037    1.5805218   0
    1  557.4500584  609.4331578  496.7091761  -0.5000  -0.5000   0.5000   -1.5828437   -1.5847037    1.5805218   0
    1  559.0934131  608.6193434  496.1910827  -0.5000  -0.5000   0.5000   -1.5828437   -1.5847037    1.5805218   0
    1  560.3591880  607.8607783  494.8977075  -0.5000  -0.5000   0.5000   -1.5828437   -1.5847037    1.5805218   0
    1  561.1184051  607.2899942  493.2753306  -0.5000  -0.5000   0.5000   -1.5828437   -1.5847037    1.5805218   0
    1  561.7881893  606.5293846  491.7656670  -0.5000  -0.5000   0.5000   -1.5828437   -1.5847037    1.5805218   0
    1  563.1647844  605.7870133  490.6940221  -0.5000  -0.5000   0.5000   -1.5828437   -1.5847037    1.5805218   0
    1  565.2991811  605.2384030  490.3129742  -0.5000  -0.5000   0.5000   -1.5828437   -1.5847037    1.5805218   0
    1  567.7025145  604.5123861  489.9840212  -0.5000  -0.5000   0.5000   -1.5828437   -1.5847037    1.5805218   0
    1  569.2145263  603.3495150  489.5458111  -0.5000  -0.5000   0.5000   -1.5828437   -1.5847037    1.5805218   0
    1  569.4800378  601.9245230  489.4550844  -0.5000  -0.5000   0.5000   -1.5828437   -1.5847037    1.5805218   0
    1  570.0031634  600.7354883  488.9926781  -0.5000  -0.5000   0.5000   -1.5828437   -1.5847037    1.5805218   0
    1  571.2666611  600.0839607  488.0977250  -0.5000  -0.5000   0.5000   -1.5828437   -1.5847037    1.5805218   0
    1  572.8918897  600.4783441  487.8994672  -0.5000  -0.5000   0.5000   -1.5828437   -1.5847037    1.5805218   0
    1  574.3790555  601.8815184  488.3935215  -0.5000  -0.5000   0.5000   -1.5828437   -1.5847037    1.5805218   0
    1  575.1259549  603.5018042  489.2444415  -0.5000  -0.5000   0.5000   -1.5828437   -1.5847037    1.5805218   0
    1  575.3414000  604.7835647  490.1822761  -0.5000  -0.5000   0.5000   -1.5828437   -1.5847037    1.5805218   0
    1  575.6352122  605.8231310  491.2134141  -0.5000  -0.5000   0.5000   -1.5828437   -1.5847037    1.5805218   0
    1  576.5319350  606.4749226  493.0028159  -0.5000  -0.5000   0.5000   -1.5828437   -1.5847037    1.5805218   0
    1  578.1921140  606.3505192  495.0023912  -0.5000  -0.5000   0.5000   -1.5828437   -1.5847037    1.5805218   0
    1  579.8780834  606.6516877  495.9408294  -0.5000  -0.5000   0.5000   -1.5828437   -1.5847037    1.5805218   0
    1  580.8995931  608.1310475  496.4447574  -0.5000  -0.5000   0.5000   -1.5828437   -1.5847037    1.5805218   0
    1  581.0443417  609.6390199  497.6228335  -0.5000  -0.5000   0.5000   -1.5828437   -1.5847037    1.5805218   0
    1  580.0534649  610.5074944  498.6780544  -0.5000  -0.5000   0.5000   -1.5828437   -1.5847037    1.5805218   0
    1  578.4067751  611.2818498  498.9074409  -0.5000  -0.5000   0.5000   -1.5828437   -1.5847037    1.5805218   0
    1  576.4762174  612.6016709  498.9214547  -0.5000  -0.5000   0.5000   -1.5828437   -1.5847037    1.5805218   0
    1  574.4974238  614.0620434  499.2916785  -0.5000  -0.5000   0.5000   -1.5828437   -1.5847037    1.5805218   0
    1  573.2102842  615.0928407  500.2997295  -0.5000  -0.5000   0.5000   -1.5828437   -1.5847037    1.5805218   0
    1  572.0275106  615.8149688  500.9280434  -0.5000  -0.5000   0.5000   -1.5828437   -1.5847037    1.5805218   0
    1  570.3809775  616.2990261  500.0293252  -0.5000  -0.5000   0.5000   -1.5828437   -1.5847037    1.5805218   0
    1  569.2586626  616.9030752  498.9502589  -0.5000  -0.5000   0.5000   -1.5828437   -1.5847037    1.5805218   0
    1  568.9504009  617.4811984  499.6764326  -0.5000  -0.5000   0.5000   -1.5828437   -1.5847037    1.5805218   0
    1  568.2363728  617.6808567  501.2243135  -0.5000  -0.5000   0.5000   -1.5828437   -1.5847037    1.5805218   0
    1  567.0120291  617.9301704  502.1979592  -0.5000  -0.5000   0.5000   -1.5828437   -1.5847037    1.5805218   0
    1  566.5437711  618.7456083  503.3578261  -0.5000  -0.5000   0.5000   -1.5828437   -1.5847037    1.5805218   0
    1  566.9125400  619.8607887  504.9489309  -0.5000  -0.5000   0.5000   -1.5828437   -1.5847037    1.5805218   0
    1  568.1123631  620.2000948  506.7815555  -0.5000  -0.5000   0.5000   -1.5828437   -1.5847037    1.5805218   0
    1  569.9296267  620.2202860  508.4254080  -0.5000  -0.5000   0.5000   -1.5828437   -1.5847037    1.5805218   0
    1  571.5137671  620.9445104  509.4339956  -0.5000  -0.5000   0.5000   -1.5828437   -1.5847037    1.5805218   0
    1  572.7024834  621.8625964  510.4678022  -0.5000  -0.5000   0.5000   -1.5828437   -1.5847037    1.5805218   0
    1  573.5117171  622.7892064  511.9230306  -0.5000  -0.5000   0.5000   -1.5828437   -1.5847037    1.5805218   0
    1  574.2007982  623.7795651  513.6927089  -0.5000  -0.5000   0.5000   -1.5828437   -1.5847037    1.5805218   0
    1  575.7066545  624.2795443  515.6607147  -0.5000  -0.5000   0.5000   -1.5828437   -1.5847037    1.5805218   0
    1  578.2194240  624.0427787  517.0121883  -0.5000  -0.5000   0.5000   -1.5828437   -1.5847037    1.5805218   0
    1  580.4584220  623.7647343  517.5324666  -0.5000  -0.5000   0.5000   -1.5828437   -1.5847037    1.5805218   0
    1  582.0834652  624.2047704  517.5640240  -0.5000  -0.5000   0.5000   -1.5828437   -1.5847037    1.5805218   0
    1  583.6945654  624.8378751  517.0385016  -0.5000  -0.5000   0.5000   -1.5828437   -1.5847037    1.5805218   0
    1  585.4413628  625.5216904  516.9330896  -0.5000  -0.5000   0.5000   -1.5828437   -1.5847037    1.5805218   0
    1  587.1040811  625.9000597  517.5701405  -0.5000  -0.5000   0.5000   -1.5828437   -1.5847037    1.5805218   0
    1  588.3502228  625.1310811  517.5785058  -0.5000  -0.5000   0.5000   -1.5828437   -1.5847037    1.5805218   0
    1  589.0210002  623.5646126  516.8697584  -0.5000  -0.5000   0.5000   -1.5828437   -1.5847037    1.5805218   0
    1  589.9197439  621.8339190  516.5442204  -0.5000  -0.5000   0.5000   -1.5828437   -1.5847037    1.5805218   0
    1  591.6007985  620.6407157  516.3361875  -0.5000  -0.5000   0.5000   -1.5828437   -1.5847037    1.5805218   0
    1  593.3266394  619.9445866  515.7684495  -0.5000  -0.5000   0.5000   -1.5828437   -1.5847037    1.5805218   0
    1  595.3339873  618.8444466  515.5821869  -0.5000  -0.5000   0.5000   -1.5828437   -1.5847037    1.5805218   0
    1  597.3404163  617.2641812  515.2429276  -0.5000  -0.5000   0.5000   -1.5828437   -1.5847037    1.5805218   0
    1  598.1355743  616.1822064  513.5715795  -0.5000  -0.5000   0.5000   -1.5828437   -1.5847037    1.5805218   0
    1  598.4856215  615.8710774  511.3863366  -0.5000  -0.5000   0.5000   -1.5828437   -1.5847037    1.5805218   0
    1  599.4764487  615.7296366  509.6184520  -0.5000  -0.5000   0.5000   -1.5828437   -1.5847037    1.5805218   0
    1  600.4856322  615.3055857  507.6903300  -0.5000  -0.5000   0.5000   -1.5828437   -1.5847037    1.5805218   0
    1  600.8362646  614.9298261  505.0834248  -0.5000  -0.5000   0.5000   -1.5828437   -1.5847037    1.5805218   0
    1  600.7218942  614.5823108  502.5815965  -0.5000  -0.5000   0.5000   -1.5828437   -1.5847037    1.5805218   0
    1  600.9373810  613.8061705  500.9059349  -0.5000  -0.5000   0.5000   -1.5828437   -1.5847037    1.5805218   0
    1  602.0065204  612.8800664  499.9571566  -0.5000  -0.5000   0.5000   -1.5828437   -1.5847037    1.5805218   0
    1  603.4832648  611.5825402  499.3023959  -0.5000  -0.5000   0.5000   -1.5828437   -1.5847037    1.5805218   0
    1  604.7794220  609.9649814  498.1696833  -0.5000  -0.5000   0.5000   -1.5828437   -1.5847037    1.5805218   0
    1  605.4081905  608.7663973  496.6458819  -0.5000  -0.5000   0.5000   -1.5828437   -1.5847037    1.5805218   0
    1  606.7466953  608.1246414  494.7961197  -0.5000  -0.5000   0.5000   -1.5828437   -1.5847037    1.5805218   0
    1  610.8167993  607.5765530  492.0913560  -0.5000  -0.5000   0.5000   -1.5828437   -1.5847037    1.5805218   0
    2  641.7579140  469.3453762  561.4713959  -0.5000  -0.5000  -0.5000   -1.5788294   -1.5802962   -1.5841186   1
    2  641.9095497  468.6796277  560.2411517  -0.5000  -0.5000  -0.5000   -1.5788294   -1.5802962   -1.5841186   1
    2  642.1712188  467.7850828  558.0331844  -0.5000  -0.5000  -0.5000   -1.5788294   -1.5802962   -1.5841186   1
    2  643.2467209  467.6613178  555.6095734  -0.5000  -0.5000  -0.5000   -1.5788294   -1.5802962   -1.5841186   1
    2  644.9505888  467.7405800  553.5933605  -0.5000  -0.5000  -0.5000   -1.5788294   -1.5802962   -1.5841186   1
    2  646.1661204  467.8385398  551.3675335  -0.5000  -0.5000  -0.5000   -1.5788294   -1.5802962   -1.5841186   1
    2  646.7086111  468.2819859  549.0817519  -0.5000  -0.5000  -0.5000   -1.5788294   -1.5802962   -1.5841186   1
    2  646.7533499  469.4075888  547.4382674  -0.5000  -0.5000  -0.5000   -1.5788294   -1.5802962   -1.5841186   1
    2  645.9848311  470.9800463  546.0762367  -0.5000  -0.5000  -0.5000   -1.5788294   -1.5802962   -1.5841186   1
    2  644.8506266  472.1524144  544.8093055  -0.5000  -0.5000  -0.5000   -1.5788294   -1.5802962   -1.5841186   1
    2  644.1819961  473.5486156  544.5636420  -0.5000  -0.5000  -0.5000   -1.5788294   -1.5802962   -1.5841186   1
    2  643.6468957  475.5871853  544.9942190  -0.5000  -0.5000  -0.5000   -1.5788294   -1.5802962   -1.5841186   1
    2  642.4294005  477.4939501  544.9737310  -0.5000  -0.5000  -0.5000   -1.5788294   -1.5802962   -1.5841186   1
    2  640.7411161  478.9453907  545.3293516  -0.5000  -0.5000  -0.5000   -1.5788294   -1.5802962   -1.5841186   1
    2  639.4962911  479.4859241  546.9598780  -0.5000  -0.5000  -0.5000   -1.5788294   -1.5802962   -1.5841186   1
    2  638.7715701  478.9578916  549.1198582  -0.5000  -0.5000  -0.5000   -1.5788294   -1.5802962   -1.5841186   1
    2  638.4183933  477.4056422  550.8510296  -0.5000  -0.5000  -0.5000   -1.5788294   -1.5802962   -1.5841186   1
    2  638.2558382  475.3683067  552.0208539  -0.5000  -0.5000  -0.5000   -1.5788294   -1.5802962   -1.5841186   1
    2  637.6920686  474.2181960  553.5950609  -0.5000  -0.5000  -0.5000   -1.5788294   -1.5802962   -1.5841186   1
    2  637.0001633  473.7588623  555.9447648  -0.5000  -0.5000  -0.5000   -1.5788294   -1.5802962   -1.5841186   1
    2  637.4598454  472.9142737  557.9873352  -0.5000  -0.5000  -0.5000   -1.5788294   -1.5802962   -1.5841186   1
    2  639.2196299  471.5723067  559.1052328  -0.5000  -0.5000  -0.5000   -1.5788294   -1.5802962   -1.5841186   1
    2  640.4894471  470.2230683  559.8625399  -0.5000  -0.5000  -0.5000   -1.5788294   -1.5802962   -1.5841186   1
    2  640.9462011  469.5615259  560.6690572  -0.5000  -0.5000  -0.5000   -1.5788294   -1.5802962   -1.5841186   1
    2  641.7579140  469.3453762  561.4713961  -0.5000  -0.5000  -0.5000   -1.5788294   -1.5802962   -1.5841186   1
    3  568.6822650  550.9934372  486.2302677  -0.5000  -0.5000   0.5000   -1.5828437   -1.5847037    1.5805218   1
    3  569.4151115  550.2441890  485.5034747  -0.5000  -0.5000   0.5000   -1.5828437   -1.5847037    1.5805218   1
    3  570.3284265  548.4754629  484.4190145  -0.5000  -0.5000   0.5000   -1.5828437   -1.5847037    1.5805218   1
    3  570.4725101  547.2272731  482.7840681  -0.5000  -0.5000   0.5000   -1.5828437   -1.5847037    1.5805218   1
    3  569.4202111  546.2892631  480.9210131  -0.5000  -0.5000   0.5000   -1.5828437   -1.5847037    1.5805218   1
    3  568.0171836  544.9305406  479.6516667  -0.5000  -0.5000   0.5000   -1.5828437   -1.5847037    1.5805218   1
    3  567.4237766  545.0346782  479.2247236  -0.5000  -0.5000   0.5000   -1.5828437   -1.5847037    1.5805218   1
    3  566.9231024  547.1381875  479.0230060  -0.5000  -0.5000   0.5000   -1.5828437   -1.5847037    1.5805218   1
    3  565.3002219  548.7199384  478.4063788  -0.5000  -0.5000   0.5000   -1.5828437   -1.5847037    1.5805218   1
    3  563.4612775  549.9431967  477.6918027  -0.5000  -0.5000   0.5000   -1.5828437   -1.5847037    1.5805218   1
    3  562.5021597  552.2478857  477.7023535  -0.5000  -0.5000   0.5000   -1.5828437   -1.5847037    1.5805218   1
    3  562.3896110  554.6472600  478.9000462  -0.5000  -0.5000   0.5000   -1.5828437   -1.5847037    1.5805218   1
    3  562.8738139  556.4195282  480.5887658  -0.5000  -0.5000   0.5000   -1.5828437   -1.5847037    1.5805218   1
    3  563.8912530  557.5973527  481.6658849  -0.5000  -0.5000   0.5000   -1.5828437   -1.5847037    1.5805218   1
    3  565.5438617  557.7711029  482.2921023  -0.5000  -0.5000   0.5000   -1.5828437   -1.5847037    1.5805218   1
    3  567.3926153  556.4849943  482.8937925  -0.5000  -0.5000   0.5000   -1.5828437   -1.5847037    1.5805218   1
    3  568.5504771  554.0830257  483.3482001  -0.5000  -0.5000   0.5000   -1.5828437   -1.5847037    1.5805218   1
    3  568.7577130  552.2887885  484.2692548  -0.5000  -0.5000   0.5000   -1.5828437   -1.5847037    1.5805218   1
    3  568.6822652  550.9934374  486.2302676  -0.5000  -0.5000   0.5000   -1.5828437   -1.5847037    1.5805218   1
    4  677.2375000  553.4156459  467.6069583   0.5000   0.5000  -0.5000    1.5828437    1.5847037   -1.5805218   0
    4  672.9235146  552.7379958  466.1292325   0.5000   0.5000  -0.5000    1.5828437    1.5847037   -1.5805218   0
    4  671.7988549  551.5576454  465.0218276   0.5000   0.5000  -0.5000    1.5828437    1.5847037   -1.5805218   0
    4  672.3845746  550.3983401  463.5245070   0.5000   0.5000  -0.5000    1.5828437    1.5847037   -1.5805218   0
    4  672.9802036  548.6263410  462.1205524   0.5000   0.5000  -0.5000    1.5828437    1.5847037   -1.5805218   0
    4  673.4388165  546.8795389  461.3106968   0.5000   0.5000  -0.5000    1.5828437    1.5847037   -1.5805218   0
    4  674.7769779  546.2565616  460.6249209   0.5000   0.5000  -0.5000    1.5828437    1.5847037   -1.5805218   0
    4  676.5945650  545.9547781  460.4120153   0.5000   0.5000  -0.5000    1.5828437    1.5847037   -1.5805218   0
    4  678.4778997  545.4591747  460.7004132   0.5000   0.5000  -0.5000    1.5828437    1.5847037   -1.5805218   0
    4  680.8444275  544.9223782  460.7574438   0.5000   0.5000  -0.5000    1.5828437    1.5847037   -1.5805218   0
    4  682.8824309  544.6269546  461.2078218   0.5000   0.5000  -0.5000    1.5828437    1.5847037   -1.5805218   0
    4  684.1110189  544.7438192  462.7790893   0.5000   0.5000  -0.5000    1.5828437    1.5847037   -1.5805218   0
    4  684.7184927  545.6912848  464.5234694   0.5000   0.5000  -0.5000    1.5828437    1.5847037   -1.5805218   0
    4  684.9332681  547.3556492  465.9081100   0.5000   0.5000  -0.5000    1.5828437    1.5847037   -1.5805218   0
    4  685.0752251  548.6443158  467.4731255   0.5000   0.5000  -0.5000    1.5828437    1.5847037   -1.5805218   0
    4  684.6987954  549.5593419  468.7433558   0.5000   0.5000  -0.5000    1.5828437    1.5847037   -1.5805218   0
    4  683.3050453  550.4970478  469.2526537   0.5000   0.5000  -0.5000    1.5828437    1.5847037   -1.5805218   0
    4  682.0240906  551.0645772  469.2155835   0.5000   0.5000  -0.5000    1.5828437    1.5847037   -1.5805218   0
    4  680.5831868  551.7295958  468.5493677   0.5000   0.5000  -0.5000    1.5828437    1.5847037   -1.5805218   0
    4  677.2375000  553.4156459  467.6069583   0.5000   0.5000  -0.5000    1.5828437    1.5847037   -1.5805218   0
    5  405.8681373  196.3517977   98.9638045  -0.5000  -0.5000   0.5000   -1.5828437   -1.5847037    1.5805218   1
    5  406.7592451  197.1484236  100.8768749  -0.5000  -0.5000   0.5000   -1.5828437   -1.5847037    1.5805218   1
    5  408.1923175  197.9620545  102.8830754  -0.5000  -0.5000   0.5000   -1.5828437   -1.5847037    1.5805218   1
    5  409.8100470  197.6850755  103.9317823  -0.5000  -0.5000   0.5000   -1.5828437   -1.5847037    1.5805218   1
    5  411.3122846  196.9209144  103.9349251  -0.5000  -0.5000   0.5000   -1.5828437   -1.5847037    1.5805218   1
    5  412.5877785  196.5789545  103.2690513  -0.5000  -0.5000   0.5000   -1.5828437   -1.5847037    1.5805218   1
    5  414.0627393  196.6564880  102.4144227  -0.5000  -0.5000   0.5000   -1.5828437   -1.5847037    1.5805218   1
    5  415.8130982  196.5295030  101.0152337  -0.5000  -0.5000   0.5000   -1.5828437   -1.5847037    1.5805218   1
    5  416.7513634  195.8615404   99.3679497  -0.5000  -0.5000   0.5000   -1.5828437   -1.5847037    1.5805218   1
    5  416.4921668  194.6384986   97.5572388  -0.5000  -0.5000   0.5000   -1.5828437   -1.5847037    1.5805218   1
    5  416.2065469  193.0626478   95.7004391  -0.5000  -0.5000   0.5000   -1.5828437   -1.5847037    1.5805218   1
    5  416.3012806  191.4084171   94.2610606  -0.5000  -0.5000   0.5000   -1.5828437   -1.5847037    1.5805218   1
    5  415.9153490  190.7056246   92.7200451  -0.5000  -0.5000   0.5000   -1.5828437   -1.5847037    1.5805218   1
    5  414.4948307  191.0056007   91.6307951  -0.5000  -0.5000   0.5000   -1.5828437   -1.5847037    1.5805218   1
    5  412.2690160  191.2054177   91.6921574  -0.5000  -0.5000   0.5000   -1.5828437   -1.5847037    1.5805218   1
    5  409.7790075  191.1229366   92.6742861  -0.5000  -0.5000   0.5000   -1.5828437   -1.5847037    1.5805218   1