ITEM: TIMESTEP
0
ITEM: NUMBER OF ATOMS
14108
ITEM: BOX BOUNDS pp pp pp 
0.0 696.799889
0.0 696.656500
0.0 696.722056
ITEM: ATOMS id x y z tbx tby tbz sbx sby sbz loop
    0  638.3360615  588.6502258  630.4269776  -0.5000  -0.5000   0.5000   -1.5826767   -1.5826531    1.5822383   0
    0  641.8692018  591.1187016  631.2132858  -0.5000  -0.5000   0.5000   -1.5826767   -1.5826531    1.5822383   0
    0  643.9735454  592.0779387  632.1438296  -0.5000  -0.5000   0.5000   -1.5826767   -1.5826531    1.5822383   0
    0  645.2487709  592.1890933  633.4330989  -0.5000  -0.5000   0.5000   -1.5826767   -1.5826531    1.5822383   0
    0  646.7207313  591.5717098  634.6780226  -0.5000  -0.5000   0.5000   -1.5826767   -1.5826531    1.5822383   0
    0  649.2733162  590.8610436  635.0799514  -0.5000  -0.5000   0.5000   -1.5826767   -1.5826531    1.5822383   0
    0  651.6246390  590.0149495  635.1693177  -0.5000  -0.5000   0.5000   -1.5826767   -1.5826531    1.5822383   0
    0  652.4261397  588.8924493  635.8945803  -0.5000  -0.5000   0.5000   -1.5826767   -1.5826531    1.5822383   0
    0  652.9355610  588.6252756  637.2922606  -0.5000  -0.5000   0.5000   -1.5826767   -1.5826531    1.5822383   0
    0  654.0906220  589.0764233  638.7987836  -0.5000  -0.5000   0.5000   -1.5826767   -1.5826531    1.5822383   0
    0  655.8244770  589.1192302  639.7866488  -0.5000  -0.5000   0.5000   -1.5826767   -1.5826531    1.5822383   0
    0  657.5057396  587.6937144  640.4141348  -0.5000  -0.5000   0.5000   -1.5826767   -1.5826531    1.5822383   0
    0  658.6131099  585.2305771  641.3257546  -0.5000  -0.5000   0.5000   -1.5826767   -1.5826531    1.5822383   0
    0  659.4962034  582.5574636  641.8908697  -0.5000  -0.5000   0.5000   -1.5826767   -1.5826531    1.5822383   0
    0  659.8574755  579.6309562  641.3621680  -0.5000  -0.5000   0.5000   -1.5826767   -1.5826531    1.5822383   0
    0  659.5261469  577.8195645  640.1556050  -0.5000  -0.5000   0.5000   -1.5826767   -1.5826531    1.5822383   0
    0  658.4758632  577.9170364  639.0283096  -0.5000  -0.5000   0.5000   -1.5826767   -1.5826531    1.5822383   0
    0  656.8975530  578.3380431  638.1448525  -0.5000  -0.5000   0.5000   -1.5826767   -1.5826531    1.5822383   0
    0  655.1624034  578.0380009  636.9682548  -0.5000  -0.5000   0.5000   -1.5826767   -1.5826531    1.5822383   0
    0  653.1628497  578.0320196  635.6290273  -0.5000  -0.5000   0.5000   -1.5826767   -1.5826531    1.5822383   0
    0  651.5202118  578.6390290  634.3937335  -0.5000  -0.5000   0.5000   -1.5826767   -1.5826531    1.5822383   0
    0  650.1788355  578.6226580  633.2035955  -0.5000  -0.5000   0.5000   -1.5826767   -1.5826531    1.5822383   0
    0  648.8857517  577.6261228  632.0993708  -0.5000  -0.5000   0.5000   -1.5826767   -1.5826531    1.5822383   0
    0  647.8741730  576.4311751  630.6166743  -0.5000  -0.5000   0.5000   -1.5826767   -1.5826531    1.5822383   0
    0  646.7315719  576.2518937  628.5073440  -0.5000  -0.5000   0.5000   -1.5826767   -1.5826531    1.5822383   0
    0  645.4632428  577.5072711  627.0543117  -0.5000  -0.5000   0.5000   -1.5826767   -1.5826531    1.5822383   0
    0  644.1564588  579.4020199  626.8415955  -0.5000  -0.5000   0.5000   -1.5826767   -1.5826531    1.5822383   0
    0  642.4376898  581.2269452  627.0001307  -0.5000  -0.5000   0.5000   -1.5826767   -1.5826531    1.5822383   0
    0  640.6823299  582.8858688  627.2820388  -0.5000  -0.5000   0.5000   -1.5826767   -1.5826531    1.5822383   0
    0  639.6906732  584.4604518  627.6373413  -0.5000  -0.5000   0.5000   -1.5826767   -1.5826531    1.5822383   0
    0  639.1901152  586.2862885  628.4676831  -0.5000  -0.5000   0.5000   -1.5826767   -1.5826531    1.5822383   0
    0  638.3360615  588.6502258  630.4269776  -0.5000  -0.5000   0.5000   -1.5826767   -1.5826531    1.5822383   0
    1  238.5094469  199.9728106  661.5339268  -0.5000   0.5000  -0.5000   -1.5819778    1.5825886   -1.5828840   0
    1  239.7932700  200.3342058  659.4342792  -0.5000   0.5000  -0.5000   -1.5819778    1.5825886   -1.5828840   0
    1  240.5000660  201.3554897  659.7045563  -0.5000   0.5000  -0.5000   -1.5819778    1.5825886   -1.5828840   0
    1  240.7272447  202.9221765  660.2000953  -0.5000   0.5000  -0.5000   -1.5819778    1.5825886   -1.5828840   0
    1  240.0674299  204.6245600  659.6725951  -0.5000   0.5000  -0.5000   -1.5819778    1.5825886   -1.5828840   0
    1  239.1231543  206.3506995  658.6953848  -0.5000   0.5000  -0.5000   -1.5819778    1.5825886   -1.5828840   0
    1  238.5728383  208.0419376  657.4400260  -0.5000   0.5000  -0.5000   -1.5819778    1.5825886   -1.5828840   0
    1  238.3830876  209.1684470  655.6714529  -0.5000   0.5000  -0.5000   -1.5819778    1.5825886   -1.5828840   0
    1  238.7125976  210.0939487  653.9737474  -0.5000   0.5000  -0.5000   -1.5819778    1.5825886   -1.5828840   0
    1  238.8430251  211.6150078  653.2278233  -0.5000   0.5000  -0.5000   -1.5819778    1.5825886   -1.5828840   0
    1  238.6214826  213.3268342  653.0620939  -0.5000   0.5000  -0.5000   -1.5819778    1.5825886   -1.5828840   0
    1  238.2983723  214.8082224  652.5714552  -0.5000   0.5000  -0.5000   -1.5819778    1.5825886   -1.5828840   0
    1  238.0694221  215.8536065  651.1947904  -0.5000   0.5000  -0.5000   -1.5819778    1.5825886   -1.5828840   0
    1  238.4798620  216.5485658  649.3547369  -0.5000   0.5000  -0.5000   -1.5819778    1.5825886   -1.5828840   0
    1  239.5672761  217.4323544  647.8602197  -0.5000   0.5000  -0.5000   -1.5819778    1.5825886   -1.5828840   0
    1  241.1515377  218.1296261  646.6159841  -0.5000   0.5000  -0.5000   -1.5819778    1.5825886   -1.5828840   0
    1  242.2723057  218.0004285  644.7781782  -0.5000   0.5000  -0.5000   -1.5819778    1.5825886   -1.5828840   0
    1  242.4677750  217.0617068  642.3214626  -0.5000   0.5000  -0.5000   -1.5819778    1.5825886   -1.5828840   0
    1  242.6654485  216.3886457  640.0888874  -0.5000   0.5000  -0.5000   -1.5819778    1.5825886   -1.5828840   0
    1  243.4236467  216.9875683  638.4111705  -0.5000   0.5000  -0.5000   -1.5819778    1.5825886   -1.5828840   0
    1  244.6487723  218.3403419  637.4392523  -0.5000   0.5000  -0.5000   -1.5819778    1.5825886   -1.5828840   0
    1  245.9066412  220.1572536  637.1563316  -0.5000   0.5000  -0.5000   -1.5819778    1.5825886   -1.5828840   0
    1  246.9341792  222.0022251  636.7547729  -0.5000   0.5000  -0.5000   -1.5819778    1.5825886   -1.5828840   0
    1  248.4983571  223.2265807  635.9011207  -0.5000   0.5000  -0.5000   -1.5819778    1.5825886   -1.5828840   0
    1  250.5696708  224.4110101  635.1744647  -0.5000   0.5000  -0.5000   -1.5819778    1.5825886   -1.5828840   0
    1  252.1860945  225.9608794  634.6898898  -0.5000   0.5000  -0.5000   -1.5819778    1.5825886   -1.5828840   0
    1  253.6612678  227.7877335  634.4592690  -0.5000   0.5000  -0.5000   -1.5819778    1.5825886   -1.5828840   0
    1  255.1211183  229.6175190  634.7353879  -0.5000   0.5000  -0.5000   -1.5819778    1.5825886   -1.5828840   0
    1  256.4215517  230.8795892  635.4400337  -0.5000   0.5000  -0.5000   -1.5819778    1.5825886   -1.5828840   0
    1  257.8902935  231.7935273  635.6981104  -0.5000   0.5000  -0.5000   -1.5819778    1.5825886   -1.5828840   0
    1  259.7567789  232.7138670  635.0429461  -0.5000   0.5000  -0.5000   -1.5819778    1.5825886   -1.5828840   0
    1  261.4940615  233.5719917  634.0673238  -0.5000   0.5000  -0.5000   -1.5819778    1.5825886   -1.5828840   0
    1  262.2906948  233.9677749  632.7994558  -0.5000   0.5000  -0.5000   -1.5819778    1.5825886   -1.5828840   0
    1  262.3102867  233.3780196  631.3589130  -0.5000   0.5000  -0.5000   -1.5819778    1.5825886   -1.5828840   0
    1  261.8182039  232.2376013  630.2697712  -0.5000   0.5000  -0.5000   -1.5819778    1.5825886   -1.5828840   0
    1  261.3645940  231.0574468  628.8709174  -0.5000   0.5000  -0.5000   -1.5819778    1.5825886   -1.5828840   0
    1  261.9792425  230.1611696  627.0433175  -0.5000   0.5000  -0.5000   -1.5819778    1.5825886   -1.5828840   0
    1  264.2504885  230.0118850  626.1988941  -0.5000   0.5000  -0.5000   -1.5819778    1.5825886   -1.5828840   0
    1  266.9257877  230.1293161  625.6633651  -0.5000   0.5000  -0.5000   -1.5819778    1.5825886   -1.5828840   0
    1  268.9461608  230.1316601  624.1182634  -0.5000   0.5000  -0.5000   -1.5819778    1.5825886   -1.5828840   0
    1  270.7150765  230.2444169  622.2948348  -0.5000   0.5000  -0.5000   -1.5819778    1.5825886   -1.5828840   0
    1  271.8770494  229.9776061  620.4336567  -0.5000   0.5000  -0.5000   -1.5819778    1.5825886   -1.5828840   0
    1  272.7587113  229.6023206  618.4317701  -0.5000   0.5000  -0.5000   -1.5819778    1.5825886   -1.5828840   0
    1  273.7417350  230.1645373  616.3708670  -0.5000   0.5000  -0.5000   -1.5819778    1.5825886   -1.5828840   0
    1  274.3082791  230.7340495  614.6968123  -0.5000   0.5000  -0.5000   -1.5819778    1.5825886   -1.5828840   0
    1  274.8699865  230.6503663  614.6720873  -0.5000   0.5000  -0.5000   -1.5819778    1.5825886   -1.5828840   0
    1  275.8135873  231.1494397  615.8292560  -0.5000   0.5000  -0.5000   -1.5819778    1.5825886   -1.5828840   0
    1  276.7019096  232.4271043  617.1678660  -0.5000   0.5000  -0.5000   -1.5819778    1.5825886   -1.5828840   0
    1  276.9422421  233.8893446  618.9332633  -0.5000   0.5000  -0.5000   -1.5819778    1.5825886   -1.5828840   0
    1  276.4878349  235.3016215  620.6578474  -0.5000   0.5000  -0.5000   -1.5819778    1.5825886   -1.5828840   0
    1  276.2307909  236.5463855  621.9999226  -0.5000   0.5000  -0.5000   -1.5819778    1.5825886   -1.5828840   0
    1  276.9154579  237.5928868  623.2018167  -0.5000   0.5000  -0.5000   -1.5819778    1.5825886   -1.5828840   0
    1  278.1404839  238.6188828  624.2310850  -0.5000   0.5000  -0.5000   -1.5819778    1.5825886   -1.5828840   0
    1  279.2522291  239.8966196  624.8200634  -0.5000   0.5000  -0.5000   -1.5819778    1.5825886   -1.5828840   0
    1  280.7294016  241.0132379  624.5869922  -0.5000   0.5000  -0.5000   -1.5819778    1.5825886   -1.5828840   0
    1  282.5528860  241.1978555  623.3591119  -0.5000   0.5000  -0.5000   -1.5819778    1.5825886   -1.5828840   0
    1  284.2334988  241.1258110  621.3930995  -0.5000   0.5000  -0.5000   -1.5819778    1.5825886   -1.5828840   0
    1  285.9169647  241.5732998  620.2191551  -0.5000   0.5000  -0.5000   -1.5819778    1.5825886   -1.5828840   0
    1  287.3186792  242.3223497  620.8355159  -0.5000   0.5000  -0.5000   -1.5819778    1.5825886   -1.5828840   0
    1  288.3443476  243.8426236  622.1055166  -0.5000   0.5000  -0.5000   -1.5819778    1.5825886   -1.5828840   0
    1  289.2304515  245.9481450  623.1883023  -0.5000   0.5000  -0.5000   -1.5819778    1.5825886   -1.5828840   0
    1  290.1340201  247.9833117  624.1154699  -0.5000   0.5000  -0.5000   -1.5819778    1.5825886   -1.5828840   0
    1  291.0390996  249.8019164  624.9691842  -0.5000   0.5000  -0.5000   -1.5819778    1.5825886   -1.5828840   0
    1  292.0454198  251.2227576  625.8008346  -0.5000   0.5000  -0.5000   -1.5819778    1.5825886   -1.5828840   0
    1  293.6122156  252.2698661  625.8731517  -0.5000   0.5000  -0.5000   -1.5819778    1.5825886   -1.5828840   0
    1  295.5983992  253.0531089  625.0925688  -0.5000   0.5000  -0.5000   -1.5819778    1.5825886   -1.5828840   0
    1  297.7996119  253.6607642  624.4935594  -0.5000   0.5000  -0.5000   -1.5819778    1.5825886   -1.5828840   0
    1  299.9824361  254.4740109  624.1487586  -0.5000   0.5000  -0.5000   -1.5819778    1.5825886   -1.5828840   0
    1  301.4096209  255.5068681  623.9964210  -0.5000   0.5000  -0.5000   -1.5819778    1.5825886   -1.5828840   0
    1  302.9426306  255.8738276  624.0328334  -0.5000   0.5000  -0.5000   -1.5819778    1.5825886   -1.5828840   0
    1  305.0670284  255.5620645  622.7717083  -0.5000   0.5000  -0.5000   -1.5819778    1.5825886   -1.5828840   0
    1  306.9683900  255.5053418  620.4759777  -0.5000   0.5000  -0.5000   -1.5819778    1.5825886   -1.5828840   0
    1  308.4437175  256.1516221  618.9223935  -0.5000   0.5000  -0.5000   -1.5819778    1.5825886   -1.5828840   0
    1  309.5716030  256.9415597  618.6269791  -0.5000   0.5000  -0.5000   -1.5819778    1.5825886   -1.5828840   0
    1  311.2470051  257.5644453  619.3530276  -0.5000   0.5000  -0.5000   -1.5819778    1.5825886   -1.5828840   0
    1  313.4740640  258.7360886  619.8654207  -0.5000   0.5000  -0.5000   -1.5819778    1.5825886   -1.5828840   0
    1  315.1955490  260.2108323  619.5985460  -0.5000   0.5000  -0.5000   -1.5819778    1.5825886   -1.5828840   0
    1  315.6590513  261.2235791  619.4475115  -0.5000   0.5000  -0.5000   -1.5819778    1.5825886   -1.5828840   0
    1  314.6123572  262.0257857  620.2393571  -0.5000   0.5000  -0.5000   -1.5819778    1.5825886   -1.5828840   0
    2  557.1725750  631.5382501   35.4074850   0.5000  -0.5000  -0.5000    1.5825499   -1.5820105   -1.5818252   0
    2  559.1577855  635.2248516   35.0407449   0.5000  -0.5000  -0.5000    1.5825499   -1.5820105   -1.5818252   0
    2  561.5384943  636.5591830   35.5729526   0.5000  -0.5000  -0.5000    1.5825499   -1.5820105   -1.5818252   0
    2  564.2075555  636.6459518   36.6233694   0.5000  -0.5000  -0.5000    1.5825499   -1.5820105   -1.5818252   0
    2  565.8085979  636.3626500   38.1756865   0.5000  -0.5000  -0.5000    1.5825499   -1.5820105   -1.5818252   0
    2  566.3011880  636.7390878   40.1075774   0.5000  -0.5000  -0.5000    1.5825499   -1.5820105   -1.5818252   0
    2  566.7977596  637.6287217   41.1839336   0.5000  -0.5000  -0.5000    1.5825499   -1.5820105   -1.5818252   0
    2  567.8427045  637.4610566   41.3205078   0.5000  -0.5000  -0.5000    1.5825499   -1.5820105   -1.5818252   0
    2  570.2036850  636.7417568   41.5388924   0.5000  -0.5000  -0.5000    1.5825499   -1.5820105   -1.5818252   0
    3  694.7775070   82.7478787  144.6425509  -0.5000  -0.5000  -0.5000   -1.5821046   -1.5820749   -1.5824708   0
    3  696.0198632   83.1507014  148.2238259  -0.5000  -0.5000  -0.5000   -1.5821046   -1.5820749   -1.5824708   0
    3  696.8246773   83.5725610  151.3030523  -0.5000  -0.5000  -0.5000   -1.5821046   -1.5820749   -1.5824708   0
    3  696.8587284   83.8088006  154.1300003  -0.5000  -0.5000  -0.5000   -1.5821046   -1.5820749   -1.5824708   0
    3  696.2110076   84.3321659  156.2607690  -0.5000  -0.5000  -0.5000   -1.5821046   -1.5820749   -1.5824708   0
    3  695.7185739   85.2068622  157.8734492  -0.5000  -0.5000  -0.5000   -1.5821046   -1.5820749   -1.5824708   0
    3  695.4325189   86.1430596  159.8112923  -0.5000  -0.5000  -0.5000   -1.5821046   -1.5820749   -1.5824708   0
    3  694.7288872   86.8821868  161.9307669  -0.5000  -0.5000  -0.5000   -1.5821046   -1.5820749   -1.5824708   0
    3  693.9975454   86.9447997  164.0767714  -0.5000  -0.5000  -0.5000   -1.5821046   -1.5820749   -1.5824708   0
    3  693.9281833   87.0370726  166.2392917  -0.5000  -0.5000  -0.5000   -1.5821046   -1.5820749   -1.5824708   0
    3  693.8394087   87.8639374  168.3460477  -0.5000  -0.5000  -0.5000   -1.5821046   -1.5820749   -1.5824708   0
    3  693.0631644   88.7319063  170.8525675  -0.5000  -0.5000  -0.5000   -1.5821046   -1.5820749   -1.5824708   0
    3  692.3122610   89.1631524  173.5168611  -0.5000  -0.5000  -0.5000   -1.5821046   -1.5820749   -1.5824708   0
    3  691.6764616   89.6794318  175.1773610  -0.5000  -0.5000  -0.5000   -1.5821046   -1.5820749   -1.5824708   0
    3  690.7866593   90.8399093  175.6044124  -0.5000  -0.5000  -0.5000   -1.5821046   -1.5820749   -1.5824708   0
    3  689.6569534   92.6611986  175.4844566  -0.5000  -0.5000  -0.5000   -1.5821046   -1.5820749   -1.5824708   0
    3  688.2464989   94.3533351  175.5878309  -0.5000  -0.5000  -0.5000   -1.5821046   -1.5820749   -1.5824708   0
    3  687.1131457   95.1773081  176.7834135  -0.5000  -0.5000  -0.5000   -1.5821046   -1.5820749   -1.5824708   0
    3  686.0038012   95.3123271  178.6169438  -0.5000  -0.5000  -0.5000   -1.5821046   -1.5820749   -1.5824708   0
    3  684.2692506   94.9625177  179.7457491  -0.5000  -0.5000  -0.5000   -1.5821046   -1.5820749   -1.5824708   0
    3  682.9684257   94.0910886  180.2437102  -0.5000  -0.5000  -0.5000   -1.5821046   -1.5820749   -1.5824708   0
    3  682.0382531   93.5573675  180.8320424  -0.5000  -0.5000  -0.5000   -1.5821046   -1.5820749   -1.5824708   0
    3  680.0735333   94.1362435  181.9066110  -0.5000  -0.5000  -0.5000   -1.5821046   -1.5820749   -1.5824708   0
    4  612.3845368  169.1057817  368.1616129   1.0000  -0.0000  -0.0000    3.1646545    0.0000645    0.0006457   1
    4  613.9652881  168.6039160  367.8509832   1.0000  -0.0000  -0.0000    3.1646545    0.0000645    0.0006457   1
    4  615.6754524  169.0454768  368.7109747   1.0000  -0.0000  -0.0000    3.1646545    0.0000645    0.0006457   1
    4  616.9355497  170.4379811  369.5655864   1.0000  -0.0000  -0.0000    3.1646545    0.0000645    0.0006457   1
    4  617.6795670  172.3463121  369.0281311   1.0000  -0.0000  -0.0000    3.1646545    0.0000645    0.0006457   1
    4  618.6871979  174.5270656  368.3001004   1.0000  -0.0000  -0.0000    3.1646545    0.0000645    0.0006457   1
    4  620.0884132  175.9690047  367.9484777   1.0000  -0.0000  -0.0000    3.1646545    0.0000645    0.0006457   1
    4  621.4154918  176.8924688  368.2652228   1.0000  -0.0000  -0.0000    3.1646545    0.0000645    0.0006457   1
    4  622.4699448  178.6202472  369.4221602   1.0000  -0.0000  -0.0000    3.1646545    0.0000645    0.0006457   1
    4  623.8567653  180.8929588  370.2681273   1.0000  -0.0000  -0.0000    3.1646545    0.0000645    0.0006457   1
    4  625.2124659  182.7253277  370.5914042   1.0000  -0.0000  -0.0000    3.1646545    0.0000645    0.0006457   1
    4  625.3459522  184.2951096  371.2838158   1.0000  -0.0000  -0.0000    3.1646545    0.0000645    0.0006457   1
    4  625.0636546  186.0685779  372.6107967   1.0000  -0.0000  -0.0000    3.1646545    0.0000645    0.0006457   1
    4  625.3358985  187.5764036  374.3331231   1.0000  -0.0000  -0.0000    3.1646545    0.0000645    0.0006457   1
    4  625.8884348  187.8529665  376.1563681   1.0000  -0.0000  -0.0000    3.1646545    0.0000645    0.0006457   1
    4  626.4608895  187.3997176  377.9727071   1.0000  -0.0000  -0.0000    3.1646545    0.0000645    0.0006457   1
    4  626.7881996  187.7109087  380.0409352   1.0000  -0.0000  -0.0000    3.1646545    0.0000645    0.0006457   1
    4  627.0104748  187.9243561  382.3696362   1.0000  -0.0000  -0.0000    3.1646545    0.0000645    0.0006457   1
    4  627.6730849  187.3302006  384.4687642   1.0000  -0.0000  -0.0000    3.1646545    0.0000645    0.0006457   1
    4  628.2014767  186.8991022  386.0896379   1.0000  -0.0000  -0.0000    3.1646545    0.0000645    0.0006457   1
    4  627.7366550  187.0459164  387.7615418   1.0000  -0.0000  -0.0000    3.1646545    0.0000645    0.0006457   1
    4  627.0859881  187.4154745  389.8896676   1.0000  -0.0000  -0.0000    3.1646545    0.0000645    0.0006457   1
    4  627.2448817  187.1035293  391.8841496   1.0000  -0.0000  -0.0000    3.1646545    0.0000645    0.0006457   1
    4  627.4514826  186.2297624  393.5816109   1.0000  -0.0000  -0.0000    3.1646545    0.0000645    0.0006457   1
    4  626.6098178  185.0300886  395.0389060   1.0000  -0.0000  -0.0000    3.1646545    0.0000645    0.0006457   1
    4  625.5527094  183.1641652  395.9501275   1.0000  -0.0000  -0.0000    3.1646545    0.0000645    0.0006457   1
    4  625.3210352  181.3326810  396.1581468   1.0000  -0.0000  -0.0000    3.1646545    0.0000645    0.0006457   1
    4  625.2972073  179.8145685  395.7034697   1.0000  -0.0000  -0.0000    3.1646545    0.0000645    0.0006457   1
    4  625.0297005  177.9251549  395.3472280   1.0000  -0.0000  -0.0000    3.1646545    0.0000645    0.0006457   1
    4  624.3884028  175.9210161  395.1516549   1.0000  -0.0000  -0.0000    3.1646545    0.0000645    0.0006457   1
    4  623.4786410  174.0817241  394.5103238   1.0000  -0.0000  -0.0000    3.1646545    0.0000645    0.0006457   1
    4  622.8544162  172.2034302  393.6070162   1.0000  -0.0000  -0.0000    3.1646545    0.0000645    0.0006457   1
    4  622.6021663  170.5417876  392.4028608   1.0000  -0.0000  -0.0000    3.1646545    0.0000645    0.0006457   1
    4  622.5913311  169.2831691  390.7885317   1.0000  -0.0000  -0.0000    3.1646545    0.0000645    0.0006457   1
    4  622.3373264  168.1225961  389.2568540   1.0000  -0.0000  -0.0000    3.1646545    0.0000645    0.0006457   1
    4  621.9515105  166.8576780  387.5776183   1.0000  -0.0000  -0.0000    3.1646545    0.0000645    0.0006457   1
    4  621.6119047  165.4305040  385.4431750   1.0000  -0.0000  -0.0000    3.1646545    0.0000645    0.0006457   1
    4  620.7315178  163.7943276  383.6513750   1.0000  -0.0000  -0.0000    3.1646545    0.0000645    0.0006457   1
    4  619.6017616  162.3029042  382.2804957   1.0000  -0.0000  -0.0000    3.1646545    0.0000645    0.0006457   1
    4  618.4835591  161.8532114  380.7778715   1.0000  -0.0000  -0.0000    3.1646545    0.0000645    0.0006457   1
    4  617.2313007  163.0572432  379.2051937   1.0000  -0.0000  -0.0000    3.1646545    0.0000645    0.0006457   1
    4  616.1078145  164.6574922  377.4651872   1.0000  -0.0000  -0.0000    3.1646545    0.0000645    0.0006457   1
    4  615.2154924  165.7180523  375.3495382   1.0000  -0.0000  -0.0000    3.1646545    0.0000645    0.0006457   1
    4  614.9695881  166.8498579  373.3585406   1.0000  -0.0000  -0.0000    3.1646545    0.0000645    0.0006457   1
    4  614.7973070  168.2251030  371.5385319   1.0000  -0.0000  -0.0000    3.1646545    0.0000645    0.0006457   1
    4  613.6183065  169.4412358  369.8045999   1.0000  -0.0000  -0.0000    3.1646545    0.0000645    0.0006457   1
    4  612.4897141  169.8211011  368.8990276   1.0000  -0.0000  -0.0000    3.1646545    0.0000645    0.0006457   1
    4  612.3845369  169.1057815  368.1616130   1.0000  -0.0000  -0.0000    3.1646545    0.0000645    0.0006457   1
    5  417.1940666  277.7891888  553.0316778   0.5000   0.5000   0.5000    1.5821046    1.5820749    1.5824708   0
    5  415.2908571  274.1727239  555.9504219   0.5000   0.5000   0.5000    1.5821046    1.5820749    1.5824708   0
    5  415.8310262  272.3696765  557.5537185   0.5000   0.5000   0.5000    1.5821046    1.5820749    1.5824708   0
    5  417.3447430  271.3675326  558.2926490   0.5000   0.5000   0.5000    1.5821046    1.5820749    1.5824708   0
    5  418.9465409  270.5795766  557.8611897   0.5000   0.5000   0.5000    1.5821046    1.5820749    1.5824708   0
    5  420.2896009  269.9510160  555.9182767   0.5000   0.5000   0.5000    1.5821046    1.5820749    1.5824708   0
    5  421.1518875  269.4683285  553.5052887   0.5000   0.5000   0.5000    1.5821046    1.5820749    1.5824708   0
    5  422.1237340  269.9725986  552.1462205   0.5000   0.5000   0.5000    1.5821046    1.5820749    1.5824708   0
    5  422.8872859  272.2090142  551.7708403   0.5000   0.5000   0.5000    1.5821046    1.5820749    1.5824708   0
    5  422.6721652  275.2100347  551.5124273   0.5000   0.5000   0.5000    1.5821046    1.5820749    1.5824708   0
    5  421.7950901  277.3376957  550.9708955   0.5000   0.5000   0.5000    1.5821046    1.5820749    1.5824708   0
    5  420.2700437  278.1608814  550.9952061   0.5000   0.5000   0.5000    1.5821046    1.5820749    1.5824708   0
    5  417.1940666  277.7891888  553.0316778   0.5000   0.5000   0.5000    1.5821046    1.5820749    1.5824708   0
    6  488.0357222  188.5379445  526.1573889   0.5000  -0.5000   0.5000    1.5819778   -1.5825886    1.5828840   0
    6  489.5068773  187.3700425  527.2269136   0.5000  -0.5000   0.5000    1.5819778   -1.5825886    1.5828840   0
    6  490.8139480  185.8257385  527.7929211   0.5000  -0.5000   0.5000    1.5819778   -1.5825886    1.5828840   0
    6  492.3755156  184.4715996  527.2595391   0.5000  -0.5000   0.5000    1.5819778   -1.5825886    1.5828840   0
    6  494.8497039  183.8502037  526.9727563   0.5000  -0.5000   0.5000    1.5819778   -1.5825886    1.5828840   0
    6  498.0979573  183.8024362  527.0644564   0.5000  -0.5000   0.5000    1.5819778   -1.5825886    1.5828840   0
    6  500.8622788  183.6532599  526.7778011   0.5000  -0.5000   0.5000    1.5819778   -1.5825886    1.5828840   0
    6  502.4243129  183.0600601  526.0002909   0.5000  -0.5000   0.5000    1.5819778   -1.5825886    1.5828840   0
    6  503.3472727  182.1799184  524.4019090   0.5000  -0.5000   0.5000    1.5819778   -1.5825886    1.5828840   0
    6  503.6304623  180.7336307  522.5235071   0.5000  -0.5000   0.5000    1.5819778   -1.5825886    1.5828840   0
    6  504.0786269  178.6150268  521.4504977   0.5000  -0.5000   0.5000    1.5819778   -1.5825886    1.5828840   0
    6  505.1068307  176.3662925  520.8349450   0.5000  -0.5000   0.5000    1.5819778   -1.5825886    1.5828840   0
    6  505.1937637  174.3247440  519.8981995   0.5000  -0.5000   0.5000    1.5819778   -1.5825886    1.5828840   0
    6  504.1714303  172.5851659  519.0662861   0.5000  -0.5000   0.5000    1.5819778   -1.5825886    1.5828840   0
    6  503.2639601  171.0045316  519.2733176   0.5000  -0.5000   0.5000    1.5819778   -1.5825886    1.5828840   0
    6  502.9992840  169.3894331  520.2705476   0.5000  -0.5000   0.5000    1.5819778   -1.5825886    1.5828840   0
    6  503.0225731  167.7037362  520.8561177   0.5000  -0.5000   0.5000    1.5819778   -1.5825886    1.5828840   0
    6  503.2325425  165.9461775  520.7651819   0.5000  -0.5000   0.5000    1.5819778   -1.5825886    1.5828840   0
    6  503.3906267  164.1915643  520.3350434   0.5000  -0.5000   0.5000    1.5819778   -1.5825886    1.5828840   0
    6  503.3543883  162.6057714  519.6930606   0.5000  -0.5000   0.5000    1.5819778   -1.5825886    1.5828840   0
    6  504.2158142  161.8117991  519.4841655   0.5000  -0.5000   0.5000    1.5819778   -1.5825886    1.5828840   0
    6  505.8342810  162.3003036  519.8786613   0.5000  -0.5000   0.5000    1.5819778   -1.5825886    1.5828840   0
    6  507.5680554  163.0271692  520.3689849   0.5000  -0.5000   0.5000    1.5819778   -1.5825886    1.5828840   0
    6  509.9031534  162.9193318  520.5288501   0.5000  -0.5000   0.5000    1.5819778   -1.5825886    1.5828840   0
    6  512.2147418  162.3415496  519.4200938   0.5000  -0.5000   0.5000    1.5819778   -1.5825886    1.5828840   0
    6  514.0823181  161.8232283  517.8192339   0.5000  -0.5000   0.5000    1.5819778   -1.5825886    1.5828840   0
    6  515.6460928  162.1870447  516.9894954   0.5000  -0.5000   0.5000    1.5819778   -1.5825886    1.5828840   0
    6  516.9014773  163.7530657  516.5589601   0.5000  -0.5000   0.5000    1.5819778   -1.5825886    1.5828840   0
    6  518.7757561  164.7580901  515.9301733   0.5000  -0.5000   0.5000    1.5819778   -1.5825886    1.5828840   0
    6  521.7227791  163.8002963  514.3081727   0.5000  -0.5000   0.5000    1.5819778   -1.5825886    1.5828840   0
    7  488.0357222  188.5379445  526.1573889  -0.0000   1.0000  -0.0000    0.0001268    3.1646635   -0.0004132   0
    7  489.0491859  190.4108986  526.4360219  -0.0000   1.0000  -0.0000    0.0001268    3.1646635   -0.0004132   0
    7  489.6451073  192.6833433  526.5781942  -0.0000   1.0000  -0.0000    0.0001268    3.1646635   -0.0004132   0
    7  489.2359783  194.7305198  526.0649431  -0.0000   1.0000  -0.0000    0.0001268    3.1646635   -0.0004132   0
    7  488.8638984  196.6054942  525.3909298  -0.0000   1.0000  -0.0000    0.0001268    3.1646635   -0.0004132   0
    7  489.1792242  198.9154760  525.3471415  -0.0000   1.0000  -0.0000    0.0001268    3.1646635   -0.0004132   0
    7  489.7573719  201.3566228  525.2789617  -0.0000   1.0000  -0.0000    0.0001268    3.1646635   -0.0004132   0
    7  490.2876607  203.6075511  524.7679789  -0.0000   1.0000  -0.0000    0.0001268    3.1646635   -0.0004132   0
    7  490.4386468  206.1762741  524.2847148  -0.0000   1.0000  -0.0000    0.0001268    3.1646635   -0.0004132   0
    7  490.3872387  209.1254398  524.0532960  -0.0000   1.0000  -0.0000    0.0001268    3.1646635   -0.0004132   0
    7  490.5337910  211.3766949  523.5047217  -0.0000   1.0000  -0.0000    0.0001268    3.1646635   -0.0004132   0
    7  490.6970721  212.9097406  522.4689712  -0.0000   1.0000  -0.0000    0.0001268    3.1646635   -0.0004132   0
    7  490.8957661  215.0450020  521.8007740  -0.0000   1.0000  -0.0000    0.0001268    3.1646635   -0.0004132   0
    7  491.0716697  217.7709781  521.5659607  -0.0000   1.0000  -0.0000    0.0001268    3.1646635   -0.0004132   0
    7  491.2148485  220.4346054  521.1782445  -0.0000   1.0000  -0.0000    0.0001268    3.1646635   -0.0004132   0
    7  491.8417139  222.7686197  520.5120821  -0.0000   1.0000  -0.0000    0.0001268    3.1646635   -0.0004132   0
    7  492.6000173  224.2504829  518.9085981  -0.0000   1.0000  -0.0000    0.0001268    3.1646635   -0.0004132   0
    7  493.2737174  224.6162010  516.3905949  -0.0000   1.0000  -0.0000    0.0001268    3.1646635   -0.0004132   0
    7  493.8996130  225.0896264  515.6476128  -0.0000   1.0000  -0.0000    0.0001268    3.1646635   -0.0004132   0
    7  494.1043049  227.0005295  518.0790934  -0.0000   1.0000  -0.0000    0.0001268    3.1646635   -0.0004132   0
    8   70.6207377  148.0317500  510.0790381   0.5000  -0.5000   0.5000    1.5819778   -1.5825886    1.5828840   0
    8   74.2053891  149.0449019  509.4206304   0.5000  -0.5000   0.5000    1.5819778   -1.5825886    1.5828840   0
    8   76.0164296  149.5131020  507.5950208   0.5000  -0.5000   0.5000    1.5819778   -1.5825886    1.5828840   0
    8   76.4652332  149.0252507  505.6404747   0.5000  -0.5000   0.5000    1.5819778   -1.5825886    1.5828840   0
    8   76.1409776  147.9449038  504.2417539   0.5000  -0.5000   0.5000    1.5819778   -1.5825886    1.5828840   0