ITEM: TIMESTEP
0
ITEM: NUMBER OF ATOMS
7094
ITEM: BOX BOUNDS pp pp pp 
0.0 695.893139
0.0 696.825520
0.0 698.110345
ITEM: ATOMS id x y z tbx tby tbz sbx sby sbz loop
    0  573.7593670    6.8405929  655.7844604  -0.5000   0.5000  -0.5000   -1.5818554    1.5843092   -1.5804304   1
    0  574.9856352    8.2374034  656.9449238  -0.5000   0.5000  -0.5000   -1.5818554    1.5843092   -1.5804304   1
    0  576.6575835   10.0543731  657.9897555  -0.5000   0.5000  -0.5000   -1.5818554    1.5843092   -1.5804304   1
    0  577.6446037   11.4728544  659.0343354  -0.5000   0.5000  -0.5000   -1.5818554    1.5843092   -1.5804304   1
    0  577.2629929   12.7744609  659.6236009  -0.5000   0.5000  -0.5000   -1.5818554    1.5843092   -1.5804304   1
    0  576.1488534   14.0925324  660.5280620  -0.5000   0.5000  -0.5000   -1.5818554    1.5843092   -1.5804304   1
    0  574.5409829   14.7131022  662.1651404  -0.5000   0.5000  -0.5000   -1.5818554    1.5843092   -1.5804304   1
    0  572.3053551   14.5635215  663.3435625  -0.5000   0.5000  -0.5000   -1.5818554    1.5843092   -1.5804304   1
    0  570.2954727   13.4933703  663.8659581  -0.5000   0.5000  -0.5000   -1.5818554    1.5843092   -1.5804304   1
    0  569.4354129   11.2619385  664.0079980  -0.5000   0.5000  -0.5000   -1.5818554    1.5843092   -1.5804304   1
    0  569.6770692    8.9238454  663.3053129  -0.5000   0.5000  -0.5000   -1.5818554    1.5843092   -1.5804304   1
    0  570.6487169    7.2580759  662.2627919  -0.5000   0.5000  -0.5000   -1.5818554    1.5843092   -1.5804304   1
    0  572.1525911    6.2101279  661.3427392  -0.5000   0.5000  -0.5000   -1.5818554    1.5843092   -1.5804304   1
    0  573.3260478    6.2191698  659.9643975  -0.5000   0.5000  -0.5000   -1.5818554    1.5843092   -1.5804304   1
    0  573.7067979    7.1631459  658.0447373  -0.5000   0.5000  -0.5000   -1.5818554    1.5843092   -1.5804304   1
    0  573.6563474    7.3938405  656.5251182  -0.5000   0.5000  -0.5000   -1.5818554    1.5843092   -1.5804304   1
    0  573.7593671    6.8405930  655.7844604  -0.5000   0.5000  -0.5000   -1.5818554    1.5843092   -1.5804304   1
    1  104.4931348  344.6436692  413.2799208   0.5000  -0.5000   0.5000    1.5818554   -1.5843092    1.5804304   1
    1  105.5230480  347.3598258  413.7862002   0.5000  -0.5000   0.5000    1.5818554   -1.5843092    1.5804304   1
    1  104.7085315  349.6408602  414.8653976   0.5000  -0.5000   0.5000    1.5818554   -1.5843092    1.5804304   1
    1  102.6544539  351.3731302  415.5488114   0.5000  -0.5000   0.5000    1.5818554   -1.5843092    1.5804304   1
    1  101.5136992  352.2228836  415.4639372   0.5000  -0.5000   0.5000    1.5818554   -1.5843092    1.5804304   1
    1  102.5983700  352.3303821  415.6745393   0.5000  -0.5000   0.5000    1.5818554   -1.5843092    1.5804304   1
    1  105.2649580  352.6793715  416.4697265   0.5000  -0.5000   0.5000    1.5818554   -1.5843092    1.5804304   1
    1  108.1438611  353.4631265  416.7565604   0.5000  -0.5000   0.5000    1.5818554   -1.5843092    1.5804304   1
    1  110.0580622  354.5612443  416.4280104   0.5000  -0.5000   0.5000    1.5818554   -1.5843092    1.5804304   1
    1  111.3449836  356.0113667  415.9347791   0.5000  -0.5000   0.5000    1.5818554   -1.5843092    1.5804304   1
    1  112.7864473  356.7761646  415.2786058   0.5000  -0.5000   0.5000    1.5818554   -1.5843092    1.5804304   1
    1  114.1323182  355.8277162  414.3967216   0.5000  -0.5000   0.5000    1.5818554   -1.5843092    1.5804304   1
    1  115.3117872  354.3602617  413.0276114   0.5000  -0.5000   0.5000    1.5818554   -1.5843092    1.5804304   1
    1  116.0982158  353.2523410  411.0973636   0.5000  -0.5000   0.5000    1.5818554   -1.5843092    1.5804304   1
    1  115.9474998  351.8702688  409.2160189   0.5000  -0.5000   0.5000    1.5818554   -1.5843092    1.5804304   1
    1  114.9428256  350.1574188  407.8992140   0.5000  -0.5000   0.5000    1.5818554   -1.5843092    1.5804304   1
    1  113.3446121  348.5856991  407.2372709   0.5000  -0.5000   0.5000    1.5818554   -1.5843092    1.5804304   1
    1  111.6647656  347.6973342  408.0876428   0.5000  -0.5000   0.5000    1.5818554   -1.5843092    1.5804304   1
    1  109.8666117  347.5320401  410.1778250   0.5000  -0.5000   0.5000    1.5818554   -1.5843092    1.5804304   1
    1  107.8446070  347.5467707  411.8411367   0.5000  -0.5000   0.5000    1.5818554   -1.5843092    1.5804304   1
    1  106.3677434  347.1668613  413.0557291   0.5000  -0.5000   0.5000    1.5818554   -1.5843092    1.5804304   1
    1  105.2820637  345.9069966  413.5822225   0.5000  -0.5000   0.5000    1.5818554   -1.5843092    1.5804304   1
    1  104.4931348  344.6436692  413.2799208   0.5000  -0.5000   0.5000    1.5818554   -1.5843092    1.5804304   1
    2   64.2126764  601.2812282  493.8344529  -0.5000  -0.5000   0.5000   -1.5828236   -1.5847976    1.5807636   0
    2   63.9454301  600.4929775  490.7516511  -0.5000  -0.5000   0.5000   -1.5828236   -1.5847976    1.5807636   0
    2   63.9394737  599.3554246  489.6967297  -0.5000  -0.5000   0.5000   -1.5828236   -1.5847976    1.5807636   0
    2   64.2738689  597.4580521  489.1234332  -0.5000  -0.5000   0.5000   -1.5828236   -1.5847976    1.5807636   0
    2   65.3292214  595.3398502  488.1304891  -0.5000  -0.5000   0.5000   -1.5828236   -1.5847976    1.5807636   0
    2   65.8629000  593.6090702  487.2031944  -0.5000  -0.5000   0.5000   -1.5828236   -1.5847976    1.5807636   0
    2   64.8939746  592.1737282  486.3994870  -0.5000  -0.5000   0.5000   -1.5828236   -1.5847976    1.5807636   0
    2   63.0701517  591.3293415  485.2618618  -0.5000  -0.5000   0.5000   -1.5828236   -1.5847976    1.5807636   0
    2   61.0623293  590.9583514  483.8640716  -0.5000  -0.5000   0.5000   -1.5828236   -1.5847976    1.5807636   0
    2   59.5570042  590.0988933  482.5509053  -0.5000  -0.5000   0.5000   -1.5828236   -1.5847976    1.5807636   0
    2   58.6946402  589.2446139  480.9771920  -0.5000  -0.5000   0.5000   -1.5828236   -1.5847976    1.5807636   0
    2   57.3365387  589.3336894  479.4000441  -0.5000  -0.5000   0.5000   -1.5828236   -1.5847976    1.5807636   0
    2   54.9061011  589.9352854  478.2616198  -0.5000  -0.5000   0.5000   -1.5828236   -1.5847976    1.5807636   0
    2   52.7056756  590.7162744  477.8766728  -0.5000  -0.5000   0.5000   -1.5828236   -1.5847976    1.5807636   0
    2   51.7683132  592.4057495  478.3737321  -0.5000  -0.5000   0.5000   -1.5828236   -1.5847976    1.5807636   0
    2   51.7349925  595.4959317  478.7718164  -0.5000  -0.5000   0.5000   -1.5828236   -1.5847976    1.5807636   0
    2   51.6674445  598.9241885  478.8641072  -0.5000  -0.5000   0.5000   -1.5828236   -1.5847976    1.5807636   0
    2   51.2057042  601.6480432  479.1743930  -0.5000  -0.5000   0.5000   -1.5828236   -1.5847976    1.5807636   0
    2   50.5300599  603.6322380  479.6691514  -0.5000  -0.5000   0.5000   -1.5828236   -1.5847976    1.5807636   0
    2   49.1298181  605.0455624  480.4021295  -0.5000  -0.5000   0.5000   -1.5828236   -1.5847976    1.5807636   0
    2   47.7526279  606.5175256  481.0145453  -0.5000  -0.5000   0.5000   -1.5828236   -1.5847976    1.5807636   0
    2   47.9321333  607.7024306  481.3649777  -0.5000  -0.5000   0.5000   -1.5828236   -1.5847976    1.5807636   0
    2   49.0664644  608.0286934  482.4128169  -0.5000  -0.5000   0.5000   -1.5828236   -1.5847976    1.5807636   0
    2   49.9445010  608.3484671  484.6799951  -0.5000  -0.5000   0.5000   -1.5828236   -1.5847976    1.5807636   0
    2   50.9514948  608.5950491  487.1016113  -0.5000  -0.5000   0.5000   -1.5828236   -1.5847976    1.5807636   0
    2   52.6648705  607.7656602  488.2612459  -0.5000  -0.5000   0.5000   -1.5828236   -1.5847976    1.5807636   0
    2   54.2370780  606.2361496  489.2078655  -0.5000  -0.5000   0.5000   -1.5828236   -1.5847976    1.5807636   0
    2   55.5727505  605.1013077  490.7309054  -0.5000  -0.5000   0.5000   -1.5828236   -1.5847976    1.5807636   0
    2   57.2072316  604.2437658  491.4706357  -0.5000  -0.5000   0.5000   -1.5828236   -1.5847976    1.5807636   0
    2   58.5580828  603.2961038  490.9031088  -0.5000  -0.5000   0.5000   -1.5828236   -1.5847976    1.5807636   0
    2   60.3296537  602.2586042  490.9306174  -0.5000  -0.5000   0.5000   -1.5828236   -1.5847976    1.5807636   0
    2   64.2126764  601.2812282  493.8344529  -0.5000  -0.5000   0.5000   -1.5828236   -1.5847976    1.5807636   0
    3  345.9699556  622.4955222  590.4787889  -1.0000   0.0000   0.0000   -3.1646789   -0.0004884    0.0003332   0
    3  347.0355735  621.4965276  591.8691236  -1.0000   0.0000   0.0000   -3.1646789   -0.0004884    0.0003332   0
    3  348.2307495  620.6033664  593.4974602  -1.0000   0.0000   0.0000   -3.1646789   -0.0004884    0.0003332   0
    3  349.5254285  619.9744504  594.9026025  -1.0000   0.0000   0.0000   -3.1646789   -0.0004884    0.0003332   0
    3  350.5629107  620.0285358  596.0417921  -1.0000   0.0000   0.0000   -3.1646789   -0.0004884    0.0003332   0
    3  351.3875145  621.1713483  596.7246654  -1.0000   0.0000   0.0000   -3.1646789   -0.0004884    0.0003332   0
    3  352.4866154  622.3475084  596.4591307  -1.0000   0.0000   0.0000   -3.1646789   -0.0004884    0.0003332   0
    3  353.7885944  623.3146658  595.8322437  -1.0000   0.0000   0.0000   -3.1646789   -0.0004884    0.0003332   0
    3  355.1025165  624.5493509  594.9215672  -1.0000   0.0000   0.0000   -3.1646789   -0.0004884    0.0003332   0
    3  356.4195009  625.9436379  593.5450756  -1.0000   0.0000   0.0000   -3.1646789   -0.0004884    0.0003332   0
    3  357.4958596  627.5264620  592.2454619  -1.0000   0.0000   0.0000   -3.1646789   -0.0004884    0.0003332   0
    3  358.5934810  628.8925146  591.0657397  -1.0000   0.0000   0.0000   -3.1646789   -0.0004884    0.0003332   0
    3  359.7127149  630.1058435  589.8526506  -1.0000   0.0000   0.0000   -3.1646789   -0.0004884    0.0003332   0
    3  360.9040395  631.1463713  588.7578275  -1.0000   0.0000   0.0000   -3.1646789   -0.0004884    0.0003332   0
    3  362.5463787  631.5072353  587.7298699  -1.0000   0.0000   0.0000   -3.1646789   -0.0004884    0.0003332   0
    3  363.9811257  631.5156652  586.3741023  -1.0000   0.0000   0.0000   -3.1646789   -0.0004884    0.0003332   0
    3  365.2876476  631.6290015  584.9999751  -1.0000   0.0000   0.0000   -3.1646789   -0.0004884    0.0003332   0
    3  366.6608601  631.8815007  583.6658631  -1.0000   0.0000   0.0000   -3.1646789   -0.0004884    0.0003332   0
    3  367.8301311  632.3056705  582.0055801  -1.0000   0.0000   0.0000   -3.1646789   -0.0004884    0.0003332   0
    3  369.4566615  632.6729393  580.8462591  -1.0000   0.0000   0.0000   -3.1646789   -0.0004884    0.0003332   0
    3  371.3790771  632.8690642  580.1427075  -1.0000   0.0000   0.0000   -3.1646789   -0.0004884    0.0003332   0
    3  373.0170754  633.2745514  579.0301051  -1.0000   0.0000   0.0000   -3.1646789   -0.0004884    0.0003332   0
    3  374.4282418  634.1793928  577.7332917  -1.0000   0.0000   0.0000   -3.1646789   -0.0004884    0.0003332   0
    3  375.8470752  635.6517402  576.4566965  -1.0000   0.0000   0.0000   -3.1646789   -0.0004884    0.0003332   0
    3  377.2860288  637.1889260  575.1059422  -1.0000   0.0000   0.0000   -3.1646789   -0.0004884    0.0003332   0
    3  378.6133881  638.5361827  573.6796139  -1.0000   0.0000   0.0000   -3.1646789   -0.0004884    0.0003332   0
    3  380.0100991  639.5767170  572.0892795  -1.0000   0.0000   0.0000   -3.1646789   -0.0004884    0.0003332   0
    3  381.6825547  640.1094068  570.6778878  -1.0000   0.0000   0.0000   -3.1646789   -0.0004884    0.0003332   0
    3  383.5833674  640.6513324  569.7352545  -1.0000   0.0000   0.0000   -3.1646789   -0.0004884    0.0003332   0
    3  385.3623941  641.0701041  568.5279951  -1.0000   0.0000   0.0000   -3.1646789   -0.0004884    0.0003332   0
    3  386.5747838  641.2455909  566.9460053  -1.0000   0.0000   0.0000   -3.1646789   -0.0004884    0.0003332   0
    3  387.3287959  641.7806572  565.3540063  -1.0000   0.0000   0.0000   -3.1646789   -0.0004884    0.0003332   0
    3  388.0918990  641.9787818  563.6174261  -1.0000   0.0000   0.0000   -3.1646789   -0.0004884    0.0003332   0
    3  388.7694824  641.4067628  561.8131126  -1.0000   0.0000   0.0000   -3.1646789   -0.0004884    0.0003332   0
    3  389.8610424  641.1035508  560.2771084  -1.0000   0.0000   0.0000   -3.1646789   -0.0004884    0.0003332   0
    3  391.5128466  641.1673275  559.0804636  -1.0000   0.0000   0.0000   -3.1646789   -0.0004884    0.0003332   0
    3  392.8595490  641.1986604  557.7579960  -1.0000   0.0000   0.0000   -3.1646789   -0.0004884    0.0003332   0
    3  394.2517567  640.6687093  556.1555033  -1.0000   0.0000   0.0000   -3.1646789   -0.0004884    0.0003332   0
    3  396.1768452  639.2284733  554.4521116  -1.0000   0.0000   0.0000   -3.1646789   -0.0004884    0.0003332   0
    3  398.3444133  637.8053202  552.9694006  -1.0000   0.0000   0.0000   -3.1646789   -0.0004884    0.0003332   0
    3  400.0464204  636.6310272  552.2883442  -1.0000   0.0000   0.0000   -3.1646789   -0.0004884    0.0003332   0
    3  401.1514294  635.2230229  552.1870653  -1.0000   0.0000   0.0000   -3.1646789   -0.0004884    0.0003332   0
    3  402.2346021  633.6485330  551.5574365  -1.0000   0.0000   0.0000   -3.1646789   -0.0004884    0.0003332   0
    3  403.5849866  632.2491704  550.4429484  -1.0000   0.0000   0.0000   -3.1646789   -0.0004884    0.0003332   0
    3  405.3719984  631.1805011  549.4274827  -1.0000   0.0000   0.0000   -3.1646789   -0.0004884    0.0003332   0
    3  407.2618335  630.0185940  548.5899598  -1.0000   0.0000   0.0000   -3.1646789   -0.0004884    0.0003332   0
    3  408.5991670  628.4447210  548.1149093  -1.0000   0.0000   0.0000   -3.1646789   -0.0004884    0.0003332   0
    3  409.4302824  627.0879703  547.4887178  -1.0000   0.0000   0.0000   -3.1646789   -0.0004884    0.0003332   0
    3  410.9692422  626.4292311  546.2331166  -1.0000   0.0000   0.0000   -3.1646789   -0.0004884    0.0003332   0
    3  413.0259868  625.5403582  544.8730310  -1.0000   0.0000   0.0000   -3.1646789   -0.0004884    0.0003332   0
    3  414.4753928  624.1908400  543.5603352  -1.0000   0.0000   0.0000   -3.1646789   -0.0004884    0.0003332   0
    3  415.9626596  623.0390249  542.5173130  -1.0000   0.0000   0.0000   -3.1646789   -0.0004884    0.0003332   0
    3  417.7428948  622.7145205  541.5998270  -1.0000   0.0000   0.0000   -3.1646789   -0.0004884    0.0003332   0
    3  419.4578032  623.3813560  540.2212726  -1.0000   0.0000   0.0000   -3.1646789   -0.0004884    0.0003332   0
    3  421.2229299  623.8599881  538.8915605  -1.0000   0.0000   0.0000   -3.1646789   -0.0004884    0.0003332   0
    3  422.6517073  623.8505404  537.6264123  -1.0000   0.0000   0.0000   -3.1646789   -0.0004884    0.0003332   0
    3  423.7662985  624.3417484  536.2512328  -1.0000   0.0000   0.0000   -3.1646789   -0.0004884    0.0003332   0
    3  425.4447833  625.1811061  535.0759479  -1.0000   0.0000   0.0000   -3.1646789   -0.0004884    0.0003332   0
    3  427.0900729  625.4834941  533.5711580  -1.0000   0.0000   0.0000   -3.1646789   -0.0004884    0.0003332   0
    3  428.0505763  625.3352082  531.7335710  -1.0000   0.0000   0.0000   -3.1646789   -0.0004884    0.0003332   0
    3  429.0340925  624.8809747  530.2722506  -1.0000   0.0000   0.0000   -3.1646789   -0.0004884    0.0003332   0
    3  429.8268480  624.0715280  528.9212174  -1.0000   0.0000   0.0000   -3.1646789   -0.0004884    0.0003332   0
    3  430.5207666  623.1997546  528.1565954  -1.0000   0.0000   0.0000   -3.1646789   -0.0004884    0.0003332   0
    3  431.7684118  622.2434028  528.8548961  -1.0000   0.0000   0.0000   -3.1646789   -0.0004884    0.0003332   0
    3  432.9833963  620.7430146  529.6911753  -1.0000   0.0000   0.0000   -3.1646789   -0.0004884    0.0003332   0
    3  433.9818247  618.8574167  529.7639887  -1.0000   0.0000   0.0000   -3.1646789   -0.0004884    0.0003332   0
    3  435.4313039  617.3237292  530.4895878  -1.0000   0.0000   0.0000   -3.1646789   -0.0004884    0.0003332   0
    3  436.9723753  615.7860740  531.5617540  -1.0000   0.0000   0.0000   -3.1646789   -0.0004884    0.0003332   0
    3  438.4187603  614.0593513  531.4851438  -1.0000   0.0000   0.0000   -3.1646789   -0.0004884    0.0003332   0
    3  440.1032694  612.6166303  531.1221411  -1.0000   0.0000   0.0000   -3.1646789   -0.0004884    0.0003332   0
    3  441.6572780  611.1374685  531.0406603  -1.0000   0.0000   0.0000   -3.1646789   -0.0004884    0.0003332   0
    3  443.0564116  609.6762508  530.6679012  -1.0000   0.0000   0.0000   -3.1646789   -0.0004884    0.0003332   0
    3  444.4159455  608.3395707  530.3047850  -1.0000   0.0000   0.0000   -3.1646789   -0.0004884    0.0003332   0
    3  445.9360831  606.7022063  530.0392543  -1.0000   0.0000   0.0000   -3.1646789   -0.0004884    0.0003332   0
    3  447.8614876  604.9893330  529.6548608  -1.0000   0.0000   0.0000   -3.1646789   -0.0004884    0.0003332   0
    3  449.8165967  603.8044282  529.2965224  -1.0000   0.0000   0.0000   -3.1646789   -0.0004884    0.0003332   0
    3  451.5060867  602.9885161  528.7644999  -1.0000   0.0000   0.0000   -3.1646789   -0.0004884    0.0003332   0
    3  452.9811764  601.8495741  527.6616384  -1.0000   0.0000   0.0000   -3.1646789   -0.0004884    0.0003332   0
    3  454.3004531  600.4629614  526.0495016  -1.0000   0.0000   0.0000   -3.1646789   -0.0004884    0.0003332   0
    3  455.7776517  599.2802583  524.8648719  -1.0000   0.0000   0.0000   -3.1646789   -0.0004884    0.0003332   0
    3  457.7770544  598.0615692  524.5414344  -1.0000   0.0000   0.0000   -3.1646789   -0.0004884    0.0003332   0
    3  459.7185210  596.4587429  524.7471611  -1.0000   0.0000   0.0000   -3.1646789   -0.0004884    0.0003332   0
    3  460.9139406  594.6410958  525.1130535  -1.0000   0.0000   0.0000   -3.1646789   -0.0004884    0.0003332   0
    3  461.5467836  592.8244333  524.6286294  -1.0000   0.0000   0.0000   -3.1646789   -0.0004884    0.0003332   0
    3  462.1995535  591.1040145  523.1529348  -1.0000   0.0000   0.0000   -3.1646789   -0.0004884    0.0003332   0
    3  463.0220398  589.7219964  521.8614691  -1.0000   0.0000   0.0000   -3.1646789   -0.0004884    0.0003332   0
    3  464.0794546  588.5916242  520.9441267  -1.0000   0.0000   0.0000   -3.1646789   -0.0004884    0.0003332   0
    3  465.5505000  587.2610417  519.7529048  -1.0000   0.0000   0.0000   -3.1646789   -0.0004884    0.0003332   0
    4  691.4922857  594.6611429  413.7535714  -0.5000  -0.5000   0.5000   -1.5828236   -1.5847976    1.5807636   0
    4  690.1943014  595.1779461  415.0375471  -0.5000  -0.5000   0.5000   -1.5828236   -1.5847976    1.5807636   0
    4  689.1442889  596.3227110  416.2779714  -0.5000  -0.5000   0.5000   -1.5828236   -1.5847976    1.5807636   0
    4  687.8820657  596.8981423  417.5469156  -0.5000  -0.5000   0.5000   -1.5828236   -1.5847976    1.5807636   0
    4  686.9255504  596.7307072  419.5901923  -0.5000  -0.5000   0.5000   -1.5828236   -1.5847976    1.5807636   0
    4  686.4696414  597.1806062  421.8642847  -0.5000  -0.5000   0.5000   -1.5828236   -1.5847976    1.5807636   0
    4  685.6365957  598.5608495  422.9871858  -0.5000  -0.5000   0.5000   -1.5828236   -1.5847976    1.5807636   0
    4  684.4416785  600.1571553  423.3046869  -0.5000  -0.5000   0.5000   -1.5828236   -1.5847976    1.5807636   0
    4  682.5765846  601.0181064  423.2191304  -0.5000  -0.5000   0.5000   -1.5828236   -1.5847976    1.5807636   0
    4  680.0330141  601.3481744  422.7478344  -0.5000  -0.5000   0.5000   -1.5828236   -1.5847976    1.5807636   0
    4  677.7768496  602.0933015  422.5659815  -0.5000  -0.5000   0.5000   -1.5828236   -1.5847976    1.5807636   0
    4  676.2793251  603.2158308  423.0566156  -0.5000  -0.5000   0.5000   -1.5828236   -1.5847976    1.5807636   0
    4  675.2562684  604.5386292  423.6146814  -0.5000  -0.5000   0.5000   -1.5828236   -1.5847976    1.5807636   0
    4  674.3083395  606.0832611  424.3058559  -0.5000  -0.5000   0.5000   -1.5828236   -1.5847976    1.5807636   0
    4  673.4709560  607.9411449  425.7062737  -0.5000  -0.5000   0.5000   -1.5828236   -1.5847976    1.5807636   0
    4  672.7819593  609.2222372  427.4157491  -0.5000  -0.5000   0.5000   -1.5828236   -1.5847976    1.5807636   0
    4  672.6143804  609.0007201  429.2438049  -0.5000  -0.5000   0.5000   -1.5828236   -1.5847976    1.5807636   0
    4  672.9853230  608.6152345  431.3092685  -0.5000  -0.5000   0.5000   -1.5828236   -1.5847976    1.5807636   0
    4  673.5331577  609.0656253  433.5413247  -0.5000  -0.5000   0.5000   -1.5828236   -1.5847976    1.5807636   0
    4  674.4023581  609.2130035  435.9229693  -0.5000  -0.5000   0.5000   -1.5828236   -1.5847976    1.5807636   0
    4  675.4986080  608.2566409  437.9697633  -0.5000  -0.5000   0.5000   -1.5828236   -1.5847976    1.5807636   0
    4  676.8186132  606.7461139  439.2739470  -0.5000  -0.5000   0.5000   -1.5828236   -1.5847976    1.5807636   0
    4  678.3246645  605.1924692  440.2011938  -0.5000  -0.5000   0.5000   -1.5828236   -1.5847976    1.5807636   0
    4  679.5851793  604.0887547  441.2780130  -0.5000  -0.5000   0.5000   -1.5828236   -1.5847976    1.5807636   0
    4  680.4786735  603.3352867  442.8199414  -0.5000  -0.5000   0.5000   -1.5828236   -1.5847976    1.5807636   0
    4  681.0312527  601.6304600  443.9820769  -0.5000  -0.5000   0.5000   -1.5828236   -1.5847976    1.5807636   0
    4  681.4478982  599.4803538  443.5400841  -0.5000  -0.5000   0.5000   -1.5828236   -1.5847976    1.5807636   0
    4  681.6544445  598.1004298  442.4147904  -0.5000  -0.5000   0.5000   -1.5828236   -1.5847976    1.5807636   0
    4  681.7427950  596.3498493  442.1521601  -0.5000  -0.5000   0.5000   -1.5828236   -1.5847976    1.5807636   0
    4  682.7286745  594.3772315  442.6132473  -0.5000  -0.5000   0.5000   -1.5828236   -1.5847976    1.5807636   0
    4  684.4194644  593.0951474  442.7520696  -0.5000  -0.5000   0.5000   -1.5828236   -1.5847976    1.5807636   0
    4  685.8944164  591.8243451  442.5592919  -0.5000  -0.5000   0.5000   -1.5828236   -1.5847976    1.5807636   0
    4  687.2754486  590.4104507  443.0901094  -0.5000  -0.5000   0.5000   -1.5828236   -1.5847976    1.5807636   0
    4  688.6594950  589.2036921  444.4812112  -0.5000  -0.5000   0.5000   -1.5828236   -1.5847976    1.5807636   0
    4  689.4178128  588.5757070  446.0392927  -0.5000  -0.5000   0.5000   -1.5828236   -1.5847976    1.5807636   0
    4  689.4198410  588.5268594  447.4169457  -0.5000  -0.5000   0.5000   -1.5828236   -1.5847976    1.5807636   0
    4  689.6025001  588.7042142  448.8962144  -0.5000  -0.5000   0.5000   -1.5828236   -1.5847976    1.5807636   0
    5  388.1591360  503.2475737  114.9308721  -0.5000  -0.5000   0.5000   -1.5828236   -1.5847976    1.5807636   1
    5  387.0624313  501.1812856  115.0090569  -0.5000  -0.5000   0.5000   -1.5828236   -1.5847976    1.5807636   1
    5  387.6201362  499.1405947  114.4048285  -0.5000  -0.5000   0.5000   -1.5828236   -1.5847976    1.5807636   1
    5  388.9293405  497.5904252  113.3165354  -0.5000  -0.5000   0.5000   -1.5828236   -1.5847976    1.5807636   1
    5  388.8101908  495.9117824  112.0141923  -0.5000  -0.5000   0.5000   -1.5828236   -1.5847976    1.5807636   1
    5  387.3748005  494.8638238  111.3543072  -0.5000  -0.5000   0.5000   -1.5828236   -1.5847976    1.5807636   1
    5  385.5716706  495.5554018  110.9175241  -0.5000  -0.5000   0.5000   -1.5828236   -1.5847976    1.5807636   1
    5  383.8153564  497.5115541  110.4230158  -0.5000  -0.5000   0.5000   -1.5828236   -1.5847976    1.5807636   1
    5  381.8518862  499.4108629  110.2904034  -0.5000  -0.5000   0.5000   -1.5828236   -1.5847976    1.5807636   1
    5  379.4550682  500.3458624  109.8937467  -0.5000  -0.5000   0.5000   -1.5828236   -1.5847976    1.5807636   1
    5  377.7972180  501.0364739  109.4556970  -0.5000  -0.5000   0.5000   -1.5828236   -1.5847976    1.5807636   1
    5  376.8661667  502.2472594  109.9024664  -0.5000  -0.5000   0.5000   -1.5828236   -1.5847976    1.5807636   1
    5  375.6815930  503.6565924  110.8422872  -0.5000  -0.5000   0.5000   -1.5828236   -1.5847976    1.5807636   1
    5  374.5763963  504.8042561  112.4140842  -0.5000  -0.5000   0.5000   -1.5828236   -1.5847976    1.5807636   1
    5  374.6405513  505.4321358  114.5342497  -0.5000  -0.5000   0.5000   -1.5828236   -1.5847976    1.5807636   1
    5  376.5926751  505.6675786  115.7351835  -0.5000  -0.5000   0.5000   -1.5828236   -1.5847976    1.5807636   1
    5  379.3547306  505.5608641  116.1099329  -0.5000  -0.5000   0.5000   -1.5828236   -1.5847976    1.5807636   1
    5  381.4864689  505.1722968  116.7785807  -0.5000  -0.5000   0.5000   -1.5828236   -1.5847976    1.5807636   1
    5  383.5385403  504.6664009  117.0874663  -0.5000  -0.5000   0.5000   -1.5828236   -1.5847976    1.5807636   1
    5  385.7746557  504.2316601  116.2337444  -0.5000  -0.5000   0.5000   -1.5828236   -1.5847976    1.5807636   1
    5  387.3500438  504.0752674  115.3109655  -0.5000  -0.5000   0.5000   -1.5828236   -1.5847976    1.5807636   1
    5  388.1591359  503.2475736  114.9308721  -0.5000  -0.5000   0.5000   -1.5828236   -1.5847976    1.5807636   1
    6  677.2017167   46.2851767  562.4329334  -0.5000  -0.5000  -0.5000   -1.5782728   -1.5803483   -1.5838988   0
    6  674.5322489   47.7495396  559.9779148  -0.5000  -0.5000  -0.5000   -1.5782728   -1.5803483   -1.5838988   0
    6  672.4909909   49.4426690  559.4721736  -0.5000  -0.5000  -0.5000   -1.5782728   -1.5803483   -1.5838988   0
    6  671.2387133   51.1260174  560.0336403  -0.5000  -0.5000  -0.5000   -1.5782728   -1.5803483   -1.5838988   0
    6  671.0678008   52.1704238  561.6195021  -0.5000  -0.5000  -0.5000   -1.5782728   -1.5803483   -1.5838988   0
    6  670.9240052   51.9642153  563.5195326  -0.5000  -0.5000  -0.5000   -1.5782728   -1.5803483   -1.5838988   0
    6  670.3061313   50.8307000  564.8305316  -0.5000  -0.5000  -0.5000   -1.5782728   -1.5803483   -1.5838988   0
    6  670.3487666   49.6932670  566.0764528  -0.5000  -0.5000  -0.5000   -1.5782728   -1.5803483   -1.5838988   0
    6  670.8617741   48.0110834  566.9597558  -0.5000  -0.5000  -0.5000   -1.5782728   -1.5803483   -1.5838988   0
    6  671.7718497   45.9417429  567.2290489  -0.5000  -0.5000  -0.5000   -1.5782728   -1.5803483   -1.5838988   0
    6  673.8954026   44.4940832  567.0170273  -0.5000  -0.5000  -0.5000   -1.5782728   -1.5803483   -1.5838988   0
    6  675.8562067   43.7057702  566.3491225  -0.5000  -0.5000  -0.5000   -1.5782728   -1.5803483   -1.5838988   0
    6  676.6212694   44.3646611  565.0825387  -0.5000  -0.5000  -0.5000   -1.5782728   -1.5803483   -1.5838988   0
    6  677.2017167   46.2851767  562.4329334  -0.5000  -0.5000  -0.5000   -1.5782728   -1.5803483   -1.5838988   0
    7  240.5059349  295.1487876   46.1493240  -0.5000  -0.5000  -0.5000   -1.5782728   -1.5803483   -1.5838988   1
    7  240.8110254  294.2033667   47.1132597  -0.5000  -0.5000  -0.5000   -1.5782728   -1.5803483   -1.5838988   1
    7  240.5585257  292.7309564   48.5926706  -0.5000  -0.5000  -0.5000   -1.5782728   -1.5803483   -1.5838988   1
    7  240.3632769  291.4880039   49.7801058  -0.5000  -0.5000  -0.5000   -1.5782728   -1.5803483   -1.5838988   1
    7  240.5898012  290.3116372   50.9836149  -0.5000  -0.5000  -0.5000   -1.5782728   -1.5803483   -1.5838988   1
    7  240.5984333  289.0750185   52.3167416  -0.5000  -0.5000  -0.5000   -1.5782728   -1.5803483   -1.5838988   1
    7  240.8721342  287.8521676   53.6414674  -0.5000  -0.5000  -0.5000   -1.5782728   -1.5803483   -1.5838988   1
    7  241.4784862  286.1460690   54.5311541  -0.5000  -0.5000  -0.5000   -1.5782728   -1.5803483   -1.5838988   1
    7  242.0012954  284.0362220   55.0738393  -0.5000  -0.5000  -0.5000   -1.5782728   -1.5803483   -1.5838988   1
    7  242.7812969  282.1388592   55.7507642  -0.5000  -0.5000  -0.5000   -1.5782728   -1.5803483   -1.5838988   1
    7  243.7678231  279.9834209   56.3099419  -0.5000  -0.5000  -0.5000   -1.5782728   -1.5803483   -1.5838988   1
    7  245.2304470  278.0525030   56.0880050  -0.5000  -0.5000  -0.5000   -1.5782728   -1.5803483   -1.5838988   1
    7  246.5788304  277.4082995   54.2872019  -0.5000  -0.5000  -0.5000   -1.5782728   -1.5803483   -1.5838988   1
    7  247.2565871  277.5236698   51.4181585  -0.5000  -0.5000  -0.5000   -1.5782728   -1.5803483   -1.5838988   1
    7  247.6836701  277.7220315   48.6888613  -0.5000  -0.5000  -0.5000   -1.5782728   -1.5803483   -1.5838988   1
    7  247.8319443  278.5167300   46.5648974  -0.5000  -0.5000  -0.5000   -1.5782728   -1.5803483   -1.5838988   1
    7  247.7887975  280.0253214   44.9700621  -0.5000  -0.5000  -0.5000   -1.5782728   -1.5803483   -1.5838988   1
    7  247.7924553  281.5451101   43.3809501  -0.5000  -0.5000  -0.5000   -1.5782728   -1.5803483   -1.5838988   1
    7  247.6533021  283.6275775   42.3352310  -0.5000  -0.5000  -0.5000   -1.5782728   -1.5803483   -1.5838988   1
    7  247.4367551  285.9592103   41.4825446  -0.5000  -0.5000  -0.5000   -1.5782728   -1.5803483   -1.5838988   1
    7  247.6573535  287.3766317   39.6876515  -0.5000  -0.5000  -0.5000   -1.5782728   -1.5803483   -1.5838988   1
    7  248.1628274  288.6280588   37.5571132  -0.5000  -0.5000  -0.5000   -1.5782728   -1.5803483   -1.5838988   1
    7  248.3354602  290.7295908   36.2682390  -0.5000  -0.5000  -0.5000   -1.5782728   -1.5803483   -1.5838988   1
    7  247.7317321  293.1547057   35.9790180  -0.5000  -0.5000  -0.5000   -1.5782728   -1.5803483   -1.5838988   1
    7  246.4295934  294.9651141   36.2191351  -0.5000  -0.5000  -0.5000   -1.5782728   -1.5803483   -1.5838988   1
    7  245.2514368  296.2353407   36.9839530  -0.5000  -0.5000  -0.5000   -1.5782728   -1.5803483   -1.5838988   1