ITEM: TIMESTEP
0
ITEM: NUMBER OF ATOMS
11034
ITEM: BOX BOUNDS pp pp pp 
0.0 696.435251
0.0 696.586382
0.0 697.402143
ITEM: ATOMS id x y z tbx tby tbz sbx sby sbz loop
    0  282.2883000  133.9114000  679.5196750   0.5000   0.5000   0.5000    1.5824541    1.5801415    1.5823868   0
    0  286.0627968  134.6121505  678.3755233   0.5000   0.5000   0.5000    1.5824541    1.5801415    1.5823868   0
    0  288.1999129  133.9168695  678.4333606   0.5000   0.5000   0.5000    1.5824541    1.5801415    1.5823868   0
    0  290.1026961  133.0744757  678.5911707   0.5000   0.5000   0.5000    1.5824541    1.5801415    1.5823868   0
    0  292.3358899  132.2760059  678.3592545   0.5000   0.5000   0.5000    1.5824541    1.5801415    1.5823868   0
    0  294.4681419  130.8943378  678.1873464   0.5000   0.5000   0.5000    1.5824541    1.5801415    1.5823868   0
    0  296.5949232  129.7161229  678.2148326   0.5000   0.5000   0.5000    1.5824541    1.5801415    1.5823868   0
    0  298.3604387  128.6949352  677.7167184   0.5000   0.5000   0.5000    1.5824541    1.5801415    1.5823868   0
    0  299.5521635  127.7762700  676.1593346   0.5000   0.5000   0.5000    1.5824541    1.5801415    1.5823868   0
    0  300.4704270  128.0920113  674.1877618   0.5000   0.5000   0.5000    1.5824541    1.5801415    1.5823868   0
    0  301.3132108  129.1896506  672.6818488   0.5000   0.5000   0.5000    1.5824541    1.5801415    1.5823868   0
    0  302.4173647  129.7833695  671.7276706   0.5000   0.5000   0.5000    1.5824541    1.5801415    1.5823868   0
    0  303.4194716  130.4100348  670.7847191   0.5000   0.5000   0.5000    1.5824541    1.5801415    1.5823868   0
    0  303.7609407  131.5951583  669.2408361   0.5000   0.5000   0.5000    1.5824541    1.5801415    1.5823868   0
    0  304.2594539  132.8310153  667.5748783   0.5000   0.5000   0.5000    1.5824541    1.5801415    1.5823868   0
    0  305.5999040  133.7553102  666.1636772   0.5000   0.5000   0.5000    1.5824541    1.5801415    1.5823868   0
    0  307.4987843  134.2034050  664.1596649   0.5000   0.5000   0.5000    1.5824541    1.5801415    1.5823868   0
    0  309.2266551  134.4433437  662.4214457   0.5000   0.5000   0.5000    1.5824541    1.5801415    1.5823868   0
    0  310.6524879  134.4953618  662.5879951   0.5000   0.5000   0.5000    1.5824541    1.5801415    1.5823868   0
    0  312.4459285  134.1135953  663.3570508   0.5000   0.5000   0.5000    1.5824541    1.5801415    1.5823868   0
    0  314.5269852  133.4778715  663.3011724   0.5000   0.5000   0.5000    1.5824541    1.5801415    1.5823868   0
    0  316.7192295  133.0744598  663.4130782   0.5000   0.5000   0.5000    1.5824541    1.5801415    1.5823868   0
    0  319.5738388  132.9884433  663.8499527   0.5000   0.5000   0.5000    1.5824541    1.5801415    1.5823868   0
    0  322.0230845  132.0678958  663.8100343   0.5000   0.5000   0.5000    1.5824541    1.5801415    1.5823868   0
    0  322.6162756  130.1788218  664.1291587   0.5000   0.5000   0.5000    1.5824541    1.5801415    1.5823868   0
    0  322.4909620  128.8011636  665.8706872   0.5000   0.5000   0.5000    1.5824541    1.5801415    1.5823868   0
    0  322.9590056  128.1486529  667.9378462   0.5000   0.5000   0.5000    1.5824541    1.5801415    1.5823868   0
    0  324.0785341  127.6542901  669.3411891   0.5000   0.5000   0.5000    1.5824541    1.5801415    1.5823868   0
    0  325.1949054  126.2402321  669.9715524   0.5000   0.5000   0.5000    1.5824541    1.5801415    1.5823868   0
    0  325.7761353  123.8062501  670.5939897   0.5000   0.5000   0.5000    1.5824541    1.5801415    1.5823868   0
    0  325.7169433  122.4382562  672.4277060   0.5000   0.5000   0.5000    1.5824541    1.5801415    1.5823868   0
    0  324.5487680  122.6204151  674.3413536   0.5000   0.5000   0.5000    1.5824541    1.5801415    1.5823868   0
    0  322.4910561  123.2018383  675.4899424   0.5000   0.5000   0.5000    1.5824541    1.5801415    1.5823868   0
    0  320.4473945  123.8908641  676.5376105   0.5000   0.5000   0.5000    1.5824541    1.5801415    1.5823868   0
    0  319.1266995  124.7678239  677.8276330   0.5000   0.5000   0.5000    1.5824541    1.5801415    1.5823868   0
    0  318.7642563  125.0235366  679.3388887   0.5000   0.5000   0.5000    1.5824541    1.5801415    1.5823868   0
    0  318.8559083  123.8194459  680.9994416   0.5000   0.5000   0.5000    1.5824541    1.5801415    1.5823868   0
    0  318.8326409  121.9148004  682.9258285   0.5000   0.5000   0.5000    1.5824541    1.5801415    1.5823868   0
    0  318.3037429  120.7451502  684.8516511   0.5000   0.5000   0.5000    1.5824541    1.5801415    1.5823868   0
    0  317.3847434  119.9332357  686.6082252   0.5000   0.5000   0.5000    1.5824541    1.5801415    1.5823868   0
    0  316.7727591  118.6428961  688.0801572   0.5000   0.5000   0.5000    1.5824541    1.5801415    1.5823868   0
    0  315.9802655  117.4102749  689.9228354   0.5000   0.5000   0.5000    1.5824541    1.5801415    1.5823868   0
    0  314.0336222  116.2693194  693.3152348   0.5000   0.5000   0.5000    1.5824541    1.5801415    1.5823868   0
    1  416.8961666  111.5633667  537.6513999  -0.5000   0.5000   0.5000   -1.5820773    1.5808283    1.5827155   0
    1  417.2226153  113.4535422  538.7286931  -0.5000   0.5000   0.5000   -1.5820773    1.5808283    1.5827155   0
    1  417.0908971  115.9153698  539.3412140  -0.5000   0.5000   0.5000   -1.5820773    1.5808283    1.5827155   0
    1  416.1358974  118.3301454  539.6966796  -0.5000   0.5000   0.5000   -1.5820773    1.5808283    1.5827155   0
    1  414.4375319  120.4246383  539.9368689  -0.5000   0.5000   0.5000   -1.5820773    1.5808283    1.5827155   0
    1  412.6200865  122.0707744  539.6476473  -0.5000   0.5000   0.5000   -1.5820773    1.5808283    1.5827155   0
    1  411.2022317  123.2324208  539.0777717  -0.5000   0.5000   0.5000   -1.5820773    1.5808283    1.5827155   0
    1  410.3080913  124.5438066  538.6611761  -0.5000   0.5000   0.5000   -1.5820773    1.5808283    1.5827155   0
    1  409.6435512  125.9474038  538.2405901  -0.5000   0.5000   0.5000   -1.5820773    1.5808283    1.5827155   0
    1  409.0402594  126.9598744  537.6041294  -0.5000   0.5000   0.5000   -1.5820773    1.5808283    1.5827155   0
    1  408.2938958  127.8654570  536.9002847  -0.5000   0.5000   0.5000   -1.5820773    1.5808283    1.5827155   0
    1  406.9132857  128.9353572  536.3663571  -0.5000   0.5000   0.5000   -1.5820773    1.5808283    1.5827155   0
    2  429.9030889  100.7976278  536.3593222  -0.5000   0.5000   0.5000   -1.5820773    1.5808283    1.5827155   0
    2  430.7723792  102.0927244  537.5932812  -0.5000   0.5000   0.5000   -1.5820773    1.5808283    1.5827155   0
    2  430.4633853  104.1532945  538.9362726  -0.5000   0.5000   0.5000   -1.5820773    1.5808283    1.5827155   0
    2  428.8929703  106.0230673  540.2886552  -0.5000   0.5000   0.5000   -1.5820773    1.5808283    1.5827155   0
    2  427.4533922  107.3767025  541.1597747  -0.5000   0.5000   0.5000   -1.5820773    1.5808283    1.5827155   0
    2  426.1783278  107.9153222  541.7814182  -0.5000   0.5000   0.5000   -1.5820773    1.5808283    1.5827155   0
    2  424.1508185  107.5232408  541.8404148  -0.5000   0.5000   0.5000   -1.5820773    1.5808283    1.5827155   0
    3  101.2571467  102.1427019  451.9896575   1.0000  -0.0000  -0.0000    3.1645314   -0.0006867   -0.0003287   0
    3  103.4386208  101.8374672  452.0754947   1.0000  -0.0000  -0.0000    3.1645314   -0.0006867   -0.0003287   0
    3  105.0921554  100.9928436  451.5683804   1.0000  -0.0000  -0.0000    3.1645314   -0.0006867   -0.0003287   0
    3  107.2909754  100.2415777  451.3927158   1.0000  -0.0000  -0.0000    3.1645314   -0.0006867   -0.0003287   0
    3  109.6341120   99.8471026  450.9447061   1.0000  -0.0000  -0.0000    3.1645314   -0.0006867   -0.0003287   0
    3  111.4529421   99.1014236  449.9330970   1.0000  -0.0000  -0.0000    3.1645314   -0.0006867   -0.0003287   0
    3  112.9880828   98.1628768  448.9009608   1.0000  -0.0000  -0.0000    3.1645314   -0.0006867   -0.0003287   0
    3  114.2523673   97.7337863  447.5552839   1.0000  -0.0000  -0.0000    3.1645314   -0.0006867   -0.0003287   0
    3  115.6304514   98.1906927  446.4318282   1.0000  -0.0000  -0.0000    3.1645314   -0.0006867   -0.0003287   0
    3  117.4322179   99.2678308  446.0320687   1.0000  -0.0000  -0.0000    3.1645314   -0.0006867   -0.0003287   0
    3  119.3359355  100.3033534  446.1201448   1.0000  -0.0000  -0.0000    3.1645314   -0.0006867   -0.0003287   0
    3  121.1691371  101.2309334  446.7353902   1.0000  -0.0000  -0.0000    3.1645314   -0.0006867   -0.0003287   0
    3  122.7967017  102.0923129  447.7639327   1.0000  -0.0000  -0.0000    3.1645314   -0.0006867   -0.0003287   0
    3  124.4608290  102.6950512  448.5537485   1.0000  -0.0000  -0.0000    3.1645314   -0.0006867   -0.0003287   0
    3  126.3294942  103.0993201  448.8544430   1.0000  -0.0000  -0.0000    3.1645314   -0.0006867   -0.0003287   0
    3  127.9558786  103.8817090  449.5177295   1.0000  -0.0000  -0.0000    3.1645314   -0.0006867   -0.0003287   0
    3  129.6457281  104.9448347  450.0852588   1.0000  -0.0000  -0.0000    3.1645314   -0.0006867   -0.0003287   0
    3  131.4419050  106.0862982  449.9580044   1.0000  -0.0000  -0.0000    3.1645314   -0.0006867   -0.0003287   0
    3  133.2067250  107.3606578  449.8954456   1.0000  -0.0000  -0.0000    3.1645314   -0.0006867   -0.0003287   0
    3  135.0162922  108.4097785  449.8531408   1.0000  -0.0000  -0.0000    3.1645314   -0.0006867   -0.0003287   0
    3  136.7392178  109.2581944  449.4083860   1.0000  -0.0000  -0.0000    3.1645314   -0.0006867   -0.0003287   0
    3  138.7718139  109.9756713  448.7008143   1.0000  -0.0000  -0.0000    3.1645314   -0.0006867   -0.0003287   0
    3  140.6835670  110.6578117  448.0670008   1.0000  -0.0000  -0.0000    3.1645314   -0.0006867   -0.0003287   0
    3  142.4068828  111.5429598  448.0334384   1.0000  -0.0000  -0.0000    3.1645314   -0.0006867   -0.0003287   0
    3  144.5997870  112.2699192  448.5600923   1.0000  -0.0000  -0.0000    3.1645314   -0.0006867   -0.0003287   0
    3  146.6914543  112.7943264  449.0900577   1.0000  -0.0000  -0.0000    3.1645314   -0.0006867   -0.0003287   0
    3  148.3031288  113.5351103  449.5814622   1.0000  -0.0000  -0.0000    3.1645314   -0.0006867   -0.0003287   0
    3  149.9073860  113.6182836  450.2843290   1.0000  -0.0000  -0.0000    3.1645314   -0.0006867   -0.0003287   0
    3  151.7516743  112.8608936  451.2545688   1.0000  -0.0000  -0.0000    3.1645314   -0.0006867   -0.0003287   0
    3  153.8219337  112.5266368  452.1216499   1.0000  -0.0000  -0.0000    3.1645314   -0.0006867   -0.0003287   0
    3  155.6002634  112.3928666  453.0435845   1.0000  -0.0000  -0.0000    3.1645314   -0.0006867   -0.0003287   0
    3  157.0254778  111.7777412  454.0260198   1.0000  -0.0000  -0.0000    3.1645314   -0.0006867   -0.0003287   0
    3  158.9039729  111.0307572  454.7260963   1.0000  -0.0000  -0.0000    3.1645314   -0.0006867   -0.0003287   0
    3  161.1385366  110.0675854  455.1122053   1.0000  -0.0000  -0.0000    3.1645314   -0.0006867   -0.0003287   0
    3  163.1655774  108.7814307  454.6735618   1.0000  -0.0000  -0.0000    3.1645314   -0.0006867   -0.0003287   0
    3  165.1642106  108.0252324  453.8677530   1.0000  -0.0000  -0.0000    3.1645314   -0.0006867   -0.0003287   0
    3  167.4475161  107.7641197  453.9607991   1.0000  -0.0000  -0.0000    3.1645314   -0.0006867   -0.0003287   0
    3  170.1316233  107.3070242  454.4577475   1.0000  -0.0000  -0.0000    3.1645314   -0.0006867   -0.0003287   0
    3  172.8196334  106.6513714  454.2855660   1.0000  -0.0000  -0.0000    3.1645314   -0.0006867   -0.0003287   0
    3  174.5941111  105.2402222  453.4908334   1.0000  -0.0000  -0.0000    3.1645314   -0.0006867   -0.0003287   0
    4  493.0201084  533.9564376   14.4105248   0.5000  -0.5000  -0.5000    1.5820773   -1.5808283   -1.5827155   0
    4  494.0096244  537.6103385   12.4958714   0.5000  -0.5000  -0.5000    1.5820773   -1.5808283   -1.5827155   0
    4  495.3430255  539.7320085   11.4887533   0.5000  -0.5000  -0.5000    1.5820773   -1.5808283   -1.5827155   0
    4  496.5545029  541.7517769   10.6116729   0.5000  -0.5000  -0.5000    1.5820773   -1.5808283   -1.5827155   0
    4  497.7352628  543.7496731   10.1729291   0.5000  -0.5000  -0.5000    1.5820773   -1.5808283   -1.5827155   0
    4  499.3285407  545.5142528   10.7112091   0.5000  -0.5000  -0.5000    1.5820773   -1.5808283   -1.5827155   0
    4  501.1204470  546.7839172   11.9340989   0.5000  -0.5000  -0.5000    1.5820773   -1.5808283   -1.5827155   0
    4  502.4913085  547.1001237   13.3162755   0.5000  -0.5000  -0.5000    1.5820773   -1.5808283   -1.5827155   0
    4  503.2910672  548.0352403   13.8112146   0.5000  -0.5000  -0.5000    1.5820773   -1.5808283   -1.5827155   0
    4  503.7609667  549.6507616   13.0701626   0.5000  -0.5000  -0.5000    1.5820773   -1.5808283   -1.5827155   0
    4  504.3387066  549.9021549   11.3451440   0.5000  -0.5000  -0.5000    1.5820773   -1.5808283   -1.5827155   0
    4  505.0230600  549.7797796    9.5579846   0.5000  -0.5000  -0.5000    1.5820773   -1.5808283   -1.5827155   0
    4  504.4806970  550.9519528    8.2552764   0.5000  -0.5000  -0.5000    1.5820773   -1.5808283   -1.5827155   0
    4  502.8051386  552.5416160    7.0283540   0.5000  -0.5000  -0.5000    1.5820773   -1.5808283   -1.5827155   0
    4  501.8507550  553.7998933    6.0218914   0.5000  -0.5000  -0.5000    1.5820773   -1.5808283   -1.5827155   0
    4  502.6790029  555.1309377    4.8558898   0.5000  -0.5000  -0.5000    1.5820773   -1.5808283   -1.5827155   0
    4  503.9123430  556.1794434    3.8920375   0.5000  -0.5000  -0.5000    1.5820773   -1.5808283   -1.5827155   0
    4  503.1117766  556.3813222    4.3556817   0.5000  -0.5000  -0.5000    1.5820773   -1.5808283   -1.5827155   0
    4  501.0466782  556.2891858    4.6589646   0.5000  -0.5000  -0.5000    1.5820773   -1.5808283   -1.5827155   0
    4  498.9047943  556.2702171    3.6666363   0.5000  -0.5000  -0.5000    1.5820773   -1.5808283   -1.5827155   0
    4  496.7133361  556.3543070    2.4020377   0.5000  -0.5000  -0.5000    1.5820773   -1.5808283   -1.5827155   0
    4  494.7370744  556.5518088    1.2564240   0.5000  -0.5000  -0.5000    1.5820773   -1.5808283   -1.5827155   0
    4  492.9432045  556.8913346    0.1816340   0.5000  -0.5000  -0.5000    1.5820773   -1.5808283   -1.5827155   0
    4  491.2014262  557.6896248   -0.8380097   0.5000  -0.5000  -0.5000    1.5820773   -1.5808283   -1.5827155   0
    4  489.1281274  559.1313381   -1.4310901   0.5000  -0.5000  -0.5000    1.5820773   -1.5808283   -1.5827155   0
    4  487.7221632  560.9046226   -2.5357901   0.5000  -0.5000  -0.5000    1.5820773   -1.5808283   -1.5827155   0
    4  487.0419088  562.1018309   -4.7279918   0.5000  -0.5000  -0.5000    1.5820773   -1.5808283   -1.5827155   0
    4  485.7216423  562.7238833   -6.4143405   0.5000  -0.5000  -0.5000    1.5820773   -1.5808283   -1.5827155   0
    4  484.2691148  562.9692209   -7.3572597   0.5000  -0.5000  -0.5000    1.5820773   -1.5808283   -1.5827155   0
    4  483.4418059  563.8352752   -8.4204688   0.5000  -0.5000  -0.5000    1.5820773   -1.5808283   -1.5827155   0
    4  482.8111010  567.4344015   -9.7752796   0.5000  -0.5000  -0.5000    1.5820773   -1.5808283   -1.5827155   0
    5  580.1102334  440.7486000   49.3892666  -1.0000  -0.0000  -0.0000   -3.1645314    0.0006867    0.0003287   0
    5  582.8903508  441.9811920   50.3648988  -1.0000  -0.0000  -0.0000   -3.1645314    0.0006867    0.0003287   0
    5  585.1060148  442.7926777   51.0420137  -1.0000  -0.0000  -0.0000   -3.1645314    0.0006867    0.0003287   0
    5  586.3407159  444.0031141   51.1516447  -1.0000  -0.0000  -0.0000   -3.1645314    0.0006867    0.0003287   0
    5  587.0463010  445.8129584   50.9430961  -1.0000  -0.0000  -0.0000   -3.1645314    0.0006867    0.0003287   0
    5  588.7002855  447.0634484   51.2115579  -1.0000  -0.0000  -0.0000   -3.1645314    0.0006867    0.0003287   0
    5  590.8311506  447.9074840   51.6545885  -1.0000  -0.0000  -0.0000   -3.1645314    0.0006867    0.0003287   0
    5  592.2215916  449.1525453   51.8906221  -1.0000  -0.0000  -0.0000   -3.1645314    0.0006867    0.0003287   0
    5  593.5017716  450.4610585   52.5209920  -1.0000  -0.0000  -0.0000   -3.1645314    0.0006867    0.0003287   0
    5  595.0599650  451.7155830   53.2558741  -1.0000  -0.0000  -0.0000   -3.1645314    0.0006867    0.0003287   0
    5  596.5774651  453.0441176   53.4283500  -1.0000  -0.0000  -0.0000   -3.1645314    0.0006867    0.0003287   0
    5  597.7704748  454.5371745   53.5493435  -1.0000  -0.0000  -0.0000   -3.1645314    0.0006867    0.0003287   0
    5  599.0184868  456.0247572   54.2378678  -1.0000  -0.0000  -0.0000   -3.1645314    0.0006867    0.0003287   0
    5  600.7536040  457.2873131   54.5885005  -1.0000  -0.0000  -0.0000   -3.1645314    0.0006867    0.0003287   0
    5  602.3350021  458.6075680   54.0763307  -1.0000  -0.0000  -0.0000   -3.1645314    0.0006867    0.0003287   0
    5  603.8506135  459.8012064   53.8059440  -1.0000  -0.0000  -0.0000   -3.1645314    0.0006867    0.0003287   0
    5  605.5289877  460.5462461   54.3724095  -1.0000  -0.0000  -0.0000   -3.1645314    0.0006867    0.0003287   0
    5  607.0005822  461.2212084   55.4169603  -1.0000  -0.0000  -0.0000   -3.1645314    0.0006867    0.0003287   0
    5  608.6372721  462.3709483   56.2581351  -1.0000  -0.0000  -0.0000   -3.1645314    0.0006867    0.0003287   0
    5  610.6343134  464.0921765   56.5678780  -1.0000  -0.0000  -0.0000   -3.1645314    0.0006867    0.0003287   0
    5  612.3784675  465.8927735   56.8741921  -1.0000  -0.0000  -0.0000   -3.1645314    0.0006867    0.0003287   0
    5  613.6769410  467.1823256   57.6288133  -1.0000  -0.0000  -0.0000   -3.1645314    0.0006867    0.0003287   0
    5  615.0742787  467.9266043   58.8256025  -1.0000  -0.0000  -0.0000   -3.1645314    0.0006867    0.0003287   0
    5  616.7152726  468.8367872   60.0417414  -1.0000  -0.0000  -0.0000   -3.1645314    0.0006867    0.0003287   0
    5  618.0443497  469.4354791   60.7418230  -1.0000  -0.0000  -0.0000   -3.1645314    0.0006867    0.0003287   0
    5  618.6726547  468.5367429   61.6949470  -1.0000  -0.0000  -0.0000   -3.1645314    0.0006867    0.0003287   0
    5  619.3416659  467.0148063   63.2065608  -1.0000  -0.0000  -0.0000   -3.1645314    0.0006867    0.0003287   0
    5  620.4092536  465.4817279   63.8902985  -1.0000  -0.0000  -0.0000   -3.1645314    0.0006867    0.0003287   0
    5  621.4052287  463.9862449   63.9149799  -1.0000  -0.0000  -0.0000   -3.1645314    0.0006867    0.0003287   0
    5  622.7070348  463.3044842   64.4537317  -1.0000  -0.0000  -0.0000   -3.1645314    0.0006867    0.0003287   0
    5  624.6325232  462.7265749   65.3751443  -1.0000  -0.0000  -0.0000   -3.1645314    0.0006867    0.0003287   0
    5  626.6813695  462.0465715   66.4971877  -1.0000  -0.0000  -0.0000   -3.1645314    0.0006867    0.0003287   0
    5  628.4777959  462.4182850   67.3653136  -1.0000  -0.0000  -0.0000   -3.1645314    0.0006867    0.0003287   0
    5  630.2614682  463.4930915   67.8371067  -1.0000  -0.0000  -0.0000   -3.1645314    0.0006867    0.0003287   0
    5  632.0714546  464.5185425   68.6594259  -1.0000  -0.0000  -0.0000   -3.1645314    0.0006867    0.0003287   0
    5  633.7568977  465.6804855   69.8348309  -1.0000  -0.0000  -0.0000   -3.1645314    0.0006867    0.0003287   0
    5  635.5244759  466.9314039   71.3002926  -1.0000  -0.0000  -0.0000   -3.1645314    0.0006867    0.0003287   0
    5  637.4754854  467.3264637   72.3458159  -1.0000  -0.0000  -0.0000   -3.1645314    0.0006867    0.0003287   0
    5  639.2459097  467.2568121   71.8654906  -1.0000  -0.0000  -0.0000   -3.1645314    0.0006867    0.0003287   0
    5  640.6113666  468.0924667   70.3325284  -1.0000  -0.0000  -0.0000   -3.1645314    0.0006867    0.0003287   0
    6  632.2553581  347.5744306  159.6270720  -0.5000  -0.5000   0.5000   -1.5819748   -1.5838157    1.5821600   1
    6  631.4021660  348.0282504  160.6442802  -0.5000  -0.5000   0.5000   -1.5819748   -1.5838157    1.5821600   1
    6  630.0692689  349.0196711  160.3794021  -0.5000  -0.5000   0.5000   -1.5819748   -1.5838157    1.5821600   1
    6  628.7794333  349.3494103  159.2416296  -0.5000  -0.5000   0.5000   -1.5819748   -1.5838157    1.5821600   1
    6  627.2980257  349.5480764  158.3027617  -0.5000  -0.5000   0.5000   -1.5819748   -1.5838157    1.5821600   1
    6  625.4932231  350.5458153  157.8731481  -0.5000  -0.5000   0.5000   -1.5819748   -1.5838157    1.5821600   1
    6  623.7605723  352.0088114  157.7906119  -0.5000  -0.5000   0.5000   -1.5819748   -1.5838157    1.5821600   1
    6  622.7696057  353.9083822  158.0903465  -0.5000  -0.5000   0.5000   -1.5819748   -1.5838157    1.5821600   1
    6  622.4050024  356.2956893  158.4094768  -0.5000  -0.5000   0.5000   -1.5819748   -1.5838157    1.5821600   1
    6  622.0601434  358.7362503  158.8729632  -0.5000  -0.5000   0.5000   -1.5819748   -1.5838157    1.5821600   1
    6  621.7532783  360.1651215  160.3063615  -0.5000  -0.5000   0.5000   -1.5819748   -1.5838157    1.5821600   1
    6  622.0681046  359.7102209  162.4191592  -0.5000  -0.5000   0.5000   -1.5819748   -1.5838157    1.5821600   1
    6  623.1914723  358.5255846  164.0881273  -0.5000  -0.5000   0.5000   -1.5819748   -1.5838157    1.5821600   1
    6  624.4257352  358.0184325  165.8336250  -0.5000  -0.5000   0.5000   -1.5819748   -1.5838157    1.5821600   1
    6  625.3976584  358.0205829  167.9933548  -0.5000  -0.5000   0.5000   -1.5819748   -1.5838157    1.5821600   1
    6  626.4378923  357.6159474  169.6926259  -0.5000  -0.5000   0.5000   -1.5819748   -1.5838157    1.5821600   1
    6  627.7595832  356.5279391  170.9175408  -0.5000  -0.5000   0.5000   -1.5819748   -1.5838157    1.5821600   1
    6  629.5067515  355.4577591  171.8819438  -0.5000  -0.5000   0.5000   -1.5819748   -1.5838157    1.5821600   1
    6  631.1909971  354.4628542  172.7202041  -0.5000  -0.5000   0.5000   -1.5819748   -1.5838157    1.5821600   1
    6  632.1102209  352.9666556  173.7392026  -0.5000  -0.5000   0.5000   -1.5819748   -1.5838157    1.5821600   1
    6  633.0229348  351.8407871  173.9481269  -0.5000  -0.5000   0.5000   -1.5819748   -1.5838157    1.5821600   1
    6  634.8777866  351.4044358  172.3949423  -0.5000  -0.5000   0.5000   -1.5819748   -1.5838157    1.5821600   1
    6  636.8925593  350.6989932  170.4832539  -0.5000  -0.5000   0.5000   -1.5819748   -1.5838157    1.5821600   1
    6  637.4214084  349.6589324  169.2735119  -0.5000  -0.5000   0.5000   -1.5819748   -1.5838157    1.5821600   1
    6  636.3899188  348.0957206  168.2038338  -0.5000  -0.5000   0.5000   -1.5819748   -1.5838157    1.5821600   1
    6  635.2405693  346.3400589  166.6034173  -0.5000  -0.5000   0.5000   -1.5819748   -1.5838157    1.5821600   1
    6  634.3429518  345.7803348  164.1434362  -0.5000  -0.5000   0.5000   -1.5819748   -1.5838157    1.5821600   1
    6  633.5025218  346.3929952  161.7276611  -0.5000  -0.5000   0.5000   -1.5819748   -1.5838157    1.5821600   1
    6  632.2553581  347.5744306  159.6270720  -0.5000  -0.5000   0.5000   -1.5819748   -1.5838157    1.5821600   1
    7  661.9154091  240.3746476  130.5524504   0.5000   0.5000   0.5000    1.5824541    1.5801415    1.5823868   1
    7  662.5480023  241.5699563  130.0638010   0.5000   0.5000   0.5000    1.5824541    1.5801415    1.5823868   1
    7  663.0240660  242.7462575  128.5197919   0.5000   0.5000   0.5000    1.5824541    1.5801415    1.5823868   1
    7  663.1392974  243.1343426  125.6705864   0.5000   0.5000   0.5000    1.5824541    1.5801415    1.5823868   1
    7  663.7365717  243.2652263  123.3892906   0.5000   0.5000   0.5000    1.5824541    1.5801415    1.5823868   1
    7  665.1597465  242.6435445  122.7420246   0.5000   0.5000   0.5000    1.5824541    1.5801415    1.5823868   1
    7  666.4272367  240.6889191  123.0618116   0.5000   0.5000   0.5000    1.5824541    1.5801415    1.5823868   1
    7  666.9257787  238.5003941  123.8266305   0.5000   0.5000   0.5000    1.5824541    1.5801415    1.5823868   1
    7  666.5063633  237.6270532  125.8029469   0.5000   0.5000   0.5000    1.5824541    1.5801415    1.5823868   1
    7  665.4508292  237.8355163  128.2491717   0.5000   0.5000   0.5000    1.5824541    1.5801415    1.5823868   1
    7  664.5593280  238.5167061  129.7848182   0.5000   0.5000   0.5000    1.5824541    1.5801415    1.5823868   1
    7  663.5974009  239.2606952  130.4343731   0.5000   0.5000   0.5000    1.5824541    1.5801415    1.5823868   1
    7  661.9154090  240.3746477  130.5524504   0.5000   0.5000   0.5000    1.5824541    1.5801415    1.5823868   1
    8  388.7253539  118.0645100   10.2602040  -0.5000  -0.5000   0.5000   -1.5819748   -1.5838157    1.5821600   1
    8  389.8134474  118.8814476   11.6774467  -0.5000  -0.5000   0.5000   -1.5819748   -1.5838157    1.5821600   1
    8  390.9016373  120.1565256   13.3961911  -0.5000  -0.5000   0.5000   -1.5819748   -1.5838157    1.5821600   1
    8  392.2817650  121.7702641   14.6684987  -0.5000  -0.5000   0.5000   -1.5819748   -1.5838157    1.5821600   1
    8  393.6809679  122.6575527   15.3226280  -0.5000  -0.5000   0.5000   -1.5819748   -1.5838157    1.5821600   1
    8  394.8778981  121.8816249   16.1650729  -0.5000  -0.5000   0.5000   -1.5819748   -1.5838157    1.5821600   1
    8  395.9528379  120.1860600   16.9127899  -0.5000  -0.5000   0.5000   -1.5819748   -1.5838157    1.5821600   1
    8  396.5488736  117.3637317   16.7558018  -0.5000  -0.5000   0.5000   -1.5819748   -1.5838157    1.5821600   1
    8  396.5090480  114.0746832   15.9531493  -0.5000  -0.5000   0.5000   -1.5819748   -1.5838157    1.5821600   1
    8  396.1429745  112.6477222   14.5986118  -0.5000  -0.5000   0.5000   -1.5819748   -1.5838157    1.5821600   1
    8  395.2702813  112.8073219   13.1266856  -0.5000  -0.5000   0.5000   -1.5819748   -1.5838157    1.5821600   1
    8  393.9146333  113.2824046   11.5784592  -0.5000  -0.5000   0.5000   -1.5819748   -1.5838157    1.5821600   1
    8  392.6769375  114.2977838    9.7395022  -0.5000  -0.5000   0.5000   -1.5819748   -1.5838157    1.5821600   1
    8  391.5908025  115.9034718    9.1469354  -0.5000  -0.5000   0.5000   -1.5819748   -1.5838157    1.5821600   1
    8  390.4031749  117.0615669    9.9176310  -0.5000  -0.5000   0.5000   -1.5819748   -1.5838157    1.5821600   1
    8  389.3644873  117.4627184   10.2011027  -0.5000  -0.5000   0.5000   -1.5819748   -1.5838157    1.5821600   1
    8  388.7253540  118.0645098   10.2602039  -0.5000  -0.5000   0.5000   -1.5819748   -1.5838157    1.5821600   1
    9  538.7622856   16.9513213  519.2943573  -0.5000   0.5000   0.5000   -1.5820773    1.5808283    1.5827155   0
    9  538.1890073   14.6412416  518.2010271  -0.5000   0.5000   0.5000   -1.5820773    1.5808283    1.5827155   0
    9  536.7851675   14.0814860  517.0260875  -0.5000   0.5000   0.5000   -1.5820773    1.5808283    1.5827155   0
    9  534.9801564   14.4847021  515.4134208  -0.5000   0.5000   0.5000   -1.5820773    1.5808283    1.5827155   0
    9  533.7822484   14.6958922  513.1115060  -0.5000   0.5000   0.5000   -1.5820773    1.5808283    1.5827155   0
    9  532.9414969   15.1277166  511.2219159  -0.5000   0.5000   0.5000   -1.5820773    1.5808283    1.5827155   0
    9  532.5200703   16.5631007  510.5186182  -0.5000   0.5000   0.5000   -1.5820773    1.5808283    1.5827155   0
    9  532.9881726   18.1304228  509.8105670  -0.5000   0.5000   0.5000   -1.5820773    1.5808283    1.5827155   0
    9  533.3597002   19.5740716  508.0915191  -0.5000   0.5000   0.5000   -1.5820773    1.5808283    1.5827155   0
    9  533.8493722   21.1660641  506.3739844  -0.5000   0.5000   0.5000   -1.5820773    1.5808283    1.5827155   0
    9  535.3369993   21.9706371  505.2348161  -0.5000   0.5000   0.5000   -1.5820773    1.5808283    1.5827155   0
    9  536.6978197   22.0869531  504.1984898  -0.5000   0.5000   0.5000   -1.5820773    1.5808283    1.5827155   0
    9  538.2032367   22.6159311  503.5369810  -0.5000   0.5000   0.5000   -1.5820773    1.5808283    1.5827155   0
    9  539.8173038   23.3289476  503.5430834  -0.5000   0.5000   0.5000   -1.5820773    1.5808283    1.5827155   0
    9  539.6983479   23.1773957  504.8619190  -0.5000   0.5000   0.5000   -1.5820773    1.5808283    1.5827155   0
    9  539.5495459   22.7022284  507.2075055  -0.5000   0.5000   0.5000   -1.5820773    1.5808283    1.5827155   0
    9  541.0241181   22.4141581  509.2594711  -0.5000   0.5000   0.5000   -1.5820773    1.5808283    1.5827155   0
    9  542.9535115   21.9977841  510.7901600  -0.5000   0.5000   0.5000   -1.5820773    1.5808283    1.5827155   0
    9  544.5957726   21.4994297  511.8626705  -0.5000   0.5000   0.5000   -1.5820773    1.5808283    1.5827155   0
    9  545.3869035   20.7973443  512.7892964  -0.5000   0.5000   0.5000   -1.5820773    1.5808283    1.5827155   0
    9  545.2584286   20.0264857  513.9450715  -0.5000   0.5000   0.5000   -1.5820773    1.5808283    1.5827155   0
   10  348.2387500   16.9435125  556.6236666   0.5000  -0.5000  -0.5000    1.5820773   -1.5808283   -1.5827155   0
   10  345.7147851   17.6808759  555.5841389   0.5000  -0.5000  -0.5000    1.5820773   -1.5808283   -1.5827155   0
   10  342.8893317   17.8281814  555.4884932   0.5000  -0.5000  -0.5000    1.5820773   -1.5808283   -1.5827155   0
   10  339.9986707   17.5246982  555.6218803   0.5000  -0.5000  -0.5000    1.5820773   -1.5808283   -1.5827155   0
   10  338.0137400   16.5223282  556.1299174   0.5000  -0.5000  -0.5000    1.5820773   -1.5808283   -1.5827155   0
   10  337.3023024   15.4153376  558.2117167   0.5000  -0.5000  -0.5000    1.5820773   -1.5808283   -1.5827155   0