ITEM: TIMESTEP
0
ITEM: NUMBER OF ATOMS
12609
ITEM: BOX BOUNDS pp pp pp 
0.0 696.703511
0.0 696.541323
0.0 696.988950
ITEM: ATOMS id x y z tbx tby tbz sbx sby sbz loop
    0  418.6055312  640.0810626  431.2400938  -0.5000   0.5000   0.5000   -1.5819719    1.5814018    1.5821947   0
    0  417.3016155  640.1760965  427.2107385  -0.5000   0.5000   0.5000   -1.5819719    1.5814018    1.5821947   0
    0  416.2128609  639.2447764  425.1442838  -0.5000   0.5000   0.5000   -1.5819719    1.5814018    1.5821947   0
    0  415.0480172  638.1504192  423.8063882  -0.5000   0.5000   0.5000   -1.5819719    1.5814018    1.5821947   0
    0  413.9928164  638.0607821  421.7496813  -0.5000   0.5000   0.5000   -1.5819719    1.5814018    1.5821947   0
    0  412.8099731  637.8960049  419.4612446  -0.5000   0.5000   0.5000   -1.5819719    1.5814018    1.5821947   0
    0  411.6136922  636.9302860  417.8846190  -0.5000   0.5000   0.5000   -1.5819719    1.5814018    1.5821947   0
    0  410.8878426  636.6850265  416.8383327  -0.5000   0.5000   0.5000   -1.5819719    1.5814018    1.5821947   0
    0  410.0595135  637.9736982  415.6190466  -0.5000   0.5000   0.5000   -1.5819719    1.5814018    1.5821947   0
    0  409.3053658  639.7915495  414.1263453  -0.5000   0.5000   0.5000   -1.5819719    1.5814018    1.5821947   0
    0  408.9372809  641.2282683  412.2266718  -0.5000   0.5000   0.5000   -1.5819719    1.5814018    1.5821947   0
    0  408.7271249  643.0029536  410.6189824  -0.5000   0.5000   0.5000   -1.5819719    1.5814018    1.5821947   0
    0  409.2842214  645.2620709  410.3239293  -0.5000   0.5000   0.5000   -1.5819719    1.5814018    1.5821947   0
    0  410.7103654  647.0746666  410.6789531  -0.5000   0.5000   0.5000   -1.5819719    1.5814018    1.5821947   0
    0  411.8236960  647.9659017  411.5276301  -0.5000   0.5000   0.5000   -1.5819719    1.5814018    1.5821947   0
    0  412.3123122  647.2327533  413.4476477  -0.5000   0.5000   0.5000   -1.5819719    1.5814018    1.5821947   0
    0  412.8567268  646.1672366  415.5203877  -0.5000   0.5000   0.5000   -1.5819719    1.5814018    1.5821947   0
    0  413.9096099  646.5125515  416.9017035  -0.5000   0.5000   0.5000   -1.5819719    1.5814018    1.5821947   0
    0  415.3910581  647.5921357  417.6489252  -0.5000   0.5000   0.5000   -1.5819719    1.5814018    1.5821947   0
    0  416.7056433  648.9603837  417.7004834  -0.5000   0.5000   0.5000   -1.5819719    1.5814018    1.5821947   0
    0  417.8083566  650.5713907  417.8680164  -0.5000   0.5000   0.5000   -1.5819719    1.5814018    1.5821947   0
    0  419.0880720  651.8281716  418.8436285  -0.5000   0.5000   0.5000   -1.5819719    1.5814018    1.5821947   0
    0  420.4264340  652.8063608  419.9768662  -0.5000   0.5000   0.5000   -1.5819719    1.5814018    1.5821947   0
    0  421.9998349  653.6394363  421.0806919  -0.5000   0.5000   0.5000   -1.5819719    1.5814018    1.5821947   0
    0  423.7584434  653.7549617  422.5955681  -0.5000   0.5000   0.5000   -1.5819719    1.5814018    1.5821947   0
    0  424.7204543  653.4336943  424.6591258  -0.5000   0.5000   0.5000   -1.5819719    1.5814018    1.5821947   0
    0  425.2666650  652.9648207  426.8560209  -0.5000   0.5000   0.5000   -1.5819719    1.5814018    1.5821947   0
    0  426.0670214  651.7459260  428.5734597  -0.5000   0.5000   0.5000   -1.5819719    1.5814018    1.5821947   0
    0  426.3253993  649.5896048  429.4803064  -0.5000   0.5000   0.5000   -1.5819719    1.5814018    1.5821947   0
    0  425.3950375  647.4352602  429.5749729  -0.5000   0.5000   0.5000   -1.5819719    1.5814018    1.5821947   0
    0  423.6044075  646.2181637  429.0047048  -0.5000   0.5000   0.5000   -1.5819719    1.5814018    1.5821947   0
    0  421.6925962  645.2024665  428.3420644  -0.5000   0.5000   0.5000   -1.5819719    1.5814018    1.5821947   0
    0  419.8229330  643.7615202  428.1726364  -0.5000   0.5000   0.5000   -1.5819719    1.5814018    1.5821947   0
    0  418.5515938  642.0979046  428.9148600  -0.5000   0.5000   0.5000   -1.5819719    1.5814018    1.5821947   0
    0  418.6055312  640.0810626  431.2400938  -0.5000   0.5000   0.5000   -1.5819719    1.5814018    1.5821947   0
    1  423.1402222  107.3177222  469.3514444   1.0000   0.0000   0.0000    3.1644992   -0.0004636    0.0000416   0
    1  425.0088615  108.1462806  470.2849530   1.0000   0.0000   0.0000    3.1644992   -0.0004636    0.0000416   0
    1  427.4831414  108.1054336  470.9978328   1.0000   0.0000   0.0000    3.1644992   -0.0004636    0.0000416   0
    1  429.8482938  108.2915385  471.5586065   1.0000   0.0000   0.0000    3.1644992   -0.0004636    0.0000416   0
    1  431.9318185  108.6595916  472.8644686   1.0000   0.0000   0.0000    3.1644992   -0.0004636    0.0000416   0
    1  433.9521302  108.5164620  474.2272836   1.0000   0.0000   0.0000    3.1644992   -0.0004636    0.0000416   0
    1  435.8127794  108.8150142  475.3896546   1.0000   0.0000   0.0000    3.1644992   -0.0004636    0.0000416   0
    1  437.4765556  109.2208275  476.4962412   1.0000   0.0000   0.0000    3.1644992   -0.0004636    0.0000416   0
    1  439.0830091  108.7365323  477.1666697   1.0000   0.0000   0.0000    3.1644992   -0.0004636    0.0000416   0
    1  440.8434048  108.0615189  477.7268156   1.0000   0.0000   0.0000    3.1644992   -0.0004636    0.0000416   0
    1  442.6262607  107.8840608  478.9060653   1.0000   0.0000   0.0000    3.1644992   -0.0004636    0.0000416   0
    1  444.2020261  107.8694303  480.6938515   1.0000   0.0000   0.0000    3.1644992   -0.0004636    0.0000416   0
    1  445.7443409  107.4435212  481.7738890   1.0000   0.0000   0.0000    3.1644992   -0.0004636    0.0000416   0
    1  447.6453329  106.8273338  481.8422832   1.0000   0.0000   0.0000    3.1644992   -0.0004636    0.0000416   0
    1  449.4985394  106.5101431  482.5517098   1.0000   0.0000   0.0000    3.1644992   -0.0004636    0.0000416   0
    1  450.6947393  105.9870817  484.1243796   1.0000   0.0000   0.0000    3.1644992   -0.0004636    0.0000416   0
    1  451.9930865  105.2863302  485.1312727   1.0000   0.0000   0.0000    3.1644992   -0.0004636    0.0000416   0
    1  453.6229896  105.3891465  485.7827534   1.0000   0.0000   0.0000    3.1644992   -0.0004636    0.0000416   0
    1  454.8824180  105.9616059  486.9318322   1.0000   0.0000   0.0000    3.1644992   -0.0004636    0.0000416   0
    1  456.1739727  106.6049335  488.4123405   1.0000   0.0000   0.0000    3.1644992   -0.0004636    0.0000416   0
    1  457.2873510  107.3790354  489.7717392   1.0000   0.0000   0.0000    3.1644992   -0.0004636    0.0000416   0
    1  458.4967587  107.2467082  491.2685388   1.0000   0.0000   0.0000    3.1644992   -0.0004636    0.0000416   0
    1  461.5428015  105.5387594  493.6196482   1.0000   0.0000   0.0000    3.1644992   -0.0004636    0.0000416   0
    2  356.8257308  653.8098077  508.4625192   0.5000   0.5000   0.5000    1.5825273    1.5809382    1.5822363   0
    2  354.2144724  654.6782049  511.0714793   0.5000   0.5000   0.5000    1.5825273    1.5809382    1.5822363   0
    2  352.7857685  655.9055897  511.1187114   0.5000   0.5000   0.5000    1.5825273    1.5809382    1.5822363   0
    2  351.7914916  657.7426600  510.6539531   0.5000   0.5000   0.5000    1.5825273    1.5809382    1.5822363   0
    2  350.9981115  659.7811084  510.9580713   0.5000   0.5000   0.5000    1.5825273    1.5809382    1.5822363   0
    2  350.6643317  661.4964606  511.4414476   0.5000   0.5000   0.5000    1.5825273    1.5809382    1.5822363   0
    2  350.0184732  662.7120547  511.5405728   0.5000   0.5000   0.5000    1.5825273    1.5809382    1.5822363   0
    2  349.2977290  663.5887233  511.1305393   0.5000   0.5000   0.5000    1.5825273    1.5809382    1.5822363   0
    2  348.2584017  664.4421008  510.9453015   0.5000   0.5000   0.5000    1.5825273    1.5809382    1.5822363   0
    2  346.4027990  665.5265853  510.7779797   0.5000   0.5000   0.5000    1.5825273    1.5809382    1.5822363   0
    2  345.1271541  666.9175829  509.7722009   0.5000   0.5000   0.5000    1.5825273    1.5809382    1.5822363   0
    2  344.9019341  668.5323104  508.2143570   0.5000   0.5000   0.5000    1.5825273    1.5809382    1.5822363   0
    2  345.0408615  669.8897951  506.4742547   0.5000   0.5000   0.5000    1.5825273    1.5809382    1.5822363   0
    2  345.3725000  670.5839928  504.4467115   0.5000   0.5000   0.5000    1.5825273    1.5809382    1.5822363   0
    2  345.9408770  671.1540411  502.3719459   0.5000   0.5000   0.5000    1.5825273    1.5809382    1.5822363   0
    2  346.3281138  672.6214697  500.9734733   0.5000   0.5000   0.5000    1.5825273    1.5809382    1.5822363   0
    2  346.1321018  674.8855116  500.1738393   0.5000   0.5000   0.5000    1.5825273    1.5809382    1.5822363   0
    2  345.7005520  676.5148809  498.9764295   0.5000   0.5000   0.5000    1.5825273    1.5809382    1.5822363   0
    2  344.5779906  677.0809355  497.2114105   0.5000   0.5000   0.5000    1.5825273    1.5809382    1.5822363   0
    2  343.2175449  677.1199364  496.0920004   0.5000   0.5000   0.5000    1.5825273    1.5809382    1.5822363   0
    2  343.9154637  676.9594380  495.9607371   0.5000   0.5000   0.5000    1.5825273    1.5809382    1.5822363   0
    2  346.4426699  676.9634709  495.4735660   0.5000   0.5000   0.5000    1.5825273    1.5809382    1.5822363   0
    2  348.6336033  676.9897575  493.9274827   0.5000   0.5000   0.5000    1.5825273    1.5809382    1.5822363   0
    2  350.6285675  676.7467577  492.1784437   0.5000   0.5000   0.5000    1.5825273    1.5809382    1.5822363   0
    2  353.1150341  676.2756595  491.2864277   0.5000   0.5000   0.5000    1.5825273    1.5809382    1.5822363   0
    2  355.2711648  675.8445212  490.5998296   0.5000   0.5000   0.5000    1.5825273    1.5809382    1.5822363   0
    2  356.7369876  676.1267826  489.3130771   0.5000   0.5000   0.5000    1.5825273    1.5809382    1.5822363   0
    2  357.9833097  677.1908514  488.1002910   0.5000   0.5000   0.5000    1.5825273    1.5809382    1.5822363   0
    2  359.3888786  678.5354870  487.1711359   0.5000   0.5000   0.5000    1.5825273    1.5809382    1.5822363   0
    2  361.1134222  680.3302695  486.4151089   0.5000   0.5000   0.5000    1.5825273    1.5809382    1.5822363   0
    2  362.5450409  682.3305197  486.3442637   0.5000   0.5000   0.5000    1.5825273    1.5809382    1.5822363   0
    2  362.7719211  683.7899036  486.0321044   0.5000   0.5000   0.5000    1.5825273    1.5809382    1.5822363   0
    2  362.2032881  685.5135148  485.0246014   0.5000   0.5000   0.5000    1.5825273    1.5809382    1.5822363   0
    2  361.6479598  688.0095764  484.9392087   0.5000   0.5000   0.5000    1.5825273    1.5809382    1.5822363   0
    2  361.0994990  690.1607342  485.2693753   0.5000   0.5000   0.5000    1.5825273    1.5809382    1.5822363   0
    2  360.6623062  692.1685043  484.6229760   0.5000   0.5000   0.5000    1.5825273    1.5809382    1.5822363   0
    2  360.2995316  694.4088906  483.4839570   0.5000   0.5000   0.5000    1.5825273    1.5809382    1.5822363   0
    2  359.5641913  696.1983935  483.1119599   0.5000   0.5000   0.5000    1.5825273    1.5809382    1.5822363   0
    2  358.6899911  697.9433626  483.7702874   0.5000   0.5000   0.5000    1.5825273    1.5809382    1.5822363   0
    2  357.5912138  699.8676101  484.1076306   0.5000   0.5000   0.5000    1.5825273    1.5809382    1.5822363   0
    2  355.9830786  701.3522665  484.4841194   0.5000   0.5000   0.5000    1.5825273    1.5809382    1.5822363   0
    2  354.5658191  702.9516225  485.5468977   0.5000   0.5000   0.5000    1.5825273    1.5809382    1.5822363   0
    2  353.5852282  704.9727778  486.3142092   0.5000   0.5000   0.5000    1.5825273    1.5809382    1.5822363   0
    2  352.4872527  707.1236680  486.7594263   0.5000   0.5000   0.5000    1.5825273    1.5809382    1.5822363   0
    2  351.1139372  709.3375620  487.2646261   0.5000   0.5000   0.5000    1.5825273    1.5809382    1.5822363   0
    2  349.8321618  711.5365006  487.6957613   0.5000   0.5000   0.5000    1.5825273    1.5809382    1.5822363   0
    2  348.9263842  714.5275483  487.7368102   0.5000   0.5000   0.5000    1.5825273    1.5809382    1.5822363   0
    3  669.8227500  614.7029559   30.5620250  -0.5000   0.5000   0.5000   -1.5819719    1.5814018    1.5821947   0
    3  672.3026152  617.4084059   33.0525994  -0.5000   0.5000   0.5000   -1.5819719    1.5814018    1.5821947   0
    3  674.1174499  618.9200224   34.2193129  -0.5000   0.5000   0.5000   -1.5819719    1.5814018    1.5821947   0
    3  675.3393381  619.9852174   34.5513725  -0.5000   0.5000   0.5000   -1.5819719    1.5814018    1.5821947   0
    3  675.9517545  621.5464261   34.3715290  -0.5000   0.5000   0.5000   -1.5819719    1.5814018    1.5821947   0
    3  677.0956612  623.1152967   34.2261553  -0.5000   0.5000   0.5000   -1.5819719    1.5814018    1.5821947   0
    3  678.8679017  624.0580634   34.9198219  -0.5000   0.5000   0.5000   -1.5819719    1.5814018    1.5821947   0
    3  680.3942724  624.0325344   36.3503144  -0.5000   0.5000   0.5000   -1.5819719    1.5814018    1.5821947   0
    3  681.0302568  623.3684082   38.3573560  -0.5000   0.5000   0.5000   -1.5819719    1.5814018    1.5821947   0
    3  680.9390415  622.7538240   40.7472533  -0.5000   0.5000   0.5000   -1.5819719    1.5814018    1.5821947   0
    3  681.2374719  622.0380869   42.5151520  -0.5000   0.5000   0.5000   -1.5819719    1.5814018    1.5821947   0
    3  682.4146871  621.9149937   43.7613200  -0.5000   0.5000   0.5000   -1.5819719    1.5814018    1.5821947   0
    3  684.2454222  623.0659894   45.0631893  -0.5000   0.5000   0.5000   -1.5819719    1.5814018    1.5821947   0
    3  685.9323507  624.6719294   45.5785482  -0.5000   0.5000   0.5000   -1.5819719    1.5814018    1.5821947   0
    3  687.0803717  626.2130574   44.6918987  -0.5000   0.5000   0.5000   -1.5819719    1.5814018    1.5821947   0
    3  687.9660791  627.8486802   43.1194265  -0.5000   0.5000   0.5000   -1.5819719    1.5814018    1.5821947   0
    3  688.1687362  629.9132779   42.2868937  -0.5000   0.5000   0.5000   -1.5819719    1.5814018    1.5821947   0
    3  687.5790778  631.6741558   41.7458627  -0.5000   0.5000   0.5000   -1.5819719    1.5814018    1.5821947   0
    3  686.9365434  633.0958678   40.3703686  -0.5000   0.5000   0.5000   -1.5819719    1.5814018    1.5821947   0
    3  686.7081838  635.4895650   39.2428981  -0.5000   0.5000   0.5000   -1.5819719    1.5814018    1.5821947   0
    3  687.0067640  638.4913416   38.4693148  -0.5000   0.5000   0.5000   -1.5819719    1.5814018    1.5821947   0
    3  687.1260441  641.1254905   37.5438003  -0.5000   0.5000   0.5000   -1.5819719    1.5814018    1.5821947   0
    3  686.1248272  642.8654394   36.8896414  -0.5000   0.5000   0.5000   -1.5819719    1.5814018    1.5821947   0
    3  684.2880471  643.6489400   35.8394563  -0.5000   0.5000   0.5000   -1.5819719    1.5814018    1.5821947   0
    3  682.4264069  643.6781334   34.3322494  -0.5000   0.5000   0.5000   -1.5819719    1.5814018    1.5821947   0
    3  680.8650907  643.4004361   33.4044717  -0.5000   0.5000   0.5000   -1.5819719    1.5814018    1.5821947   0
    3  679.0376673  643.5798989   33.1095750  -0.5000   0.5000   0.5000   -1.5819719    1.5814018    1.5821947   0
    3  676.0792525  643.9109663   32.9124180  -0.5000   0.5000   0.5000   -1.5819719    1.5814018    1.5821947   0
    4  643.1906666  116.7239000  614.6401333  -0.5000   0.5000   0.5000   -1.5819719    1.5814018    1.5821947   0
    4  642.7512392  115.4974413  615.6756050  -0.5000   0.5000   0.5000   -1.5819719    1.5814018    1.5821947   0
    4  642.0004925  113.7066461  616.8135612  -0.5000   0.5000   0.5000   -1.5819719    1.5814018    1.5821947   0
    4  641.3343745  112.8902027  618.4398123  -0.5000   0.5000   0.5000   -1.5819719    1.5814018    1.5821947   0
    4  640.6616858  112.1220625  619.6069481  -0.5000   0.5000   0.5000   -1.5819719    1.5814018    1.5821947   0
    4  640.6471118  110.1301509  619.8714806  -0.5000   0.5000   0.5000   -1.5819719    1.5814018    1.5821947   0
    4  641.6276873  108.5120915  620.8340535  -0.5000   0.5000   0.5000   -1.5819719    1.5814018    1.5821947   0
    4  642.6362356  107.7322079  622.7103469  -0.5000   0.5000   0.5000   -1.5819719    1.5814018    1.5821947   0
    4  642.6673817  106.6132632  624.1156457  -0.5000   0.5000   0.5000   -1.5819719    1.5814018    1.5821947   0
    4  641.7613982  105.0633286  624.7975181  -0.5000   0.5000   0.5000   -1.5819719    1.5814018    1.5821947   0
    4  640.0880905  104.0622224  625.0400849  -0.5000   0.5000   0.5000   -1.5819719    1.5814018    1.5821947   0
    4  637.2593770  103.9136232  625.1064453  -0.5000   0.5000   0.5000   -1.5819719    1.5814018    1.5821947   0
    4  634.3961062  103.5402183  624.8342010  -0.5000   0.5000   0.5000   -1.5819719    1.5814018    1.5821947   0
    4  632.7585576  102.5367776  623.9700562  -0.5000   0.5000   0.5000   -1.5819719    1.5814018    1.5821947   0
    4  631.1512973  101.6938617  623.2282085  -0.5000   0.5000   0.5000   -1.5819719    1.5814018    1.5821947   0
    4  628.9012450  101.6254004  622.5055424  -0.5000   0.5000   0.5000   -1.5819719    1.5814018    1.5821947   0
    4  627.5435111  101.6498718  621.0310712  -0.5000   0.5000   0.5000   -1.5819719    1.5814018    1.5821947   0
    4  627.3122328  100.6695990  619.0914341  -0.5000   0.5000   0.5000   -1.5819719    1.5814018    1.5821947   0
    4  626.7927347   98.9964775  617.6021434  -0.5000   0.5000   0.5000   -1.5819719    1.5814018    1.5821947   0
    4  625.7369719   97.4288292  617.0914466  -0.5000   0.5000   0.5000   -1.5819719    1.5814018    1.5821947   0
    4  624.9772551   95.8428136  616.5777551  -0.5000   0.5000   0.5000   -1.5819719    1.5814018    1.5821947   0
    4  624.8282136   93.7083858  615.3306166  -0.5000   0.5000   0.5000   -1.5819719    1.5814018    1.5821947   0
    4  624.5150957   91.2847036  614.7074340  -0.5000   0.5000   0.5000   -1.5819719    1.5814018    1.5821947   0
    4  623.9951085   89.3175513  615.4794981  -0.5000   0.5000   0.5000   -1.5819719    1.5814018    1.5821947   0
    4  624.2769323   87.7476889  616.2197049  -0.5000   0.5000   0.5000   -1.5819719    1.5814018    1.5821947   0
    4  624.7166190   86.0493960  615.8058605  -0.5000   0.5000   0.5000   -1.5819719    1.5814018    1.5821947   0
    4  624.5557074   83.9439502  615.0139309  -0.5000   0.5000   0.5000   -1.5819719    1.5814018    1.5821947   0
    4  624.1671536   81.4690749  614.6057637  -0.5000   0.5000   0.5000   -1.5819719    1.5814018    1.5821947   0
    4  622.9852237   79.4506153  614.2522746  -0.5000   0.5000   0.5000   -1.5819719    1.5814018    1.5821947   0
    4  621.2407148   78.3814842  614.1239666  -0.5000   0.5000   0.5000   -1.5819719    1.5814018    1.5821947   0
    4  620.7195392   77.4316174  614.4464248  -0.5000   0.5000   0.5000   -1.5819719    1.5814018    1.5821947   0
    4  621.5989595   75.9826130  614.2761069  -0.5000   0.5000   0.5000   -1.5819719    1.5814018    1.5821947   0
    4  622.6837977   74.5441796  613.7550480  -0.5000   0.5000   0.5000   -1.5819719    1.5814018    1.5821947   0
    4  623.8105170   73.3561712  614.0475453  -0.5000   0.5000   0.5000   -1.5819719    1.5814018    1.5821947   0
    4  625.7927459   72.3979513  614.8217283  -0.5000   0.5000   0.5000   -1.5819719    1.5814018    1.5821947   0
    4  628.4638504   71.6713992  615.6468511  -0.5000   0.5000   0.5000   -1.5819719    1.5814018    1.5821947   0
    4  630.4768604   70.4162072  616.4449427  -0.5000   0.5000   0.5000   -1.5819719    1.5814018    1.5821947   0
    4  631.8167341   68.9033465  617.2049243  -0.5000   0.5000   0.5000   -1.5819719    1.5814018    1.5821947   0
    4  633.6553629   68.3393864  618.0673748  -0.5000   0.5000   0.5000   -1.5819719    1.5814018    1.5821947   0
    4  636.5364027   68.5869478  618.3140448  -0.5000   0.5000   0.5000   -1.5819719    1.5814018    1.5821947   0
    4  639.8323577   68.6173667  618.3161759  -0.5000   0.5000   0.5000   -1.5819719    1.5814018    1.5821947   0
    4  642.5596412   68.0855094  619.0466350  -0.5000   0.5000   0.5000   -1.5819719    1.5814018    1.5821947   0
    4  644.5192900   67.8482216  620.2540616  -0.5000   0.5000   0.5000   -1.5819719    1.5814018    1.5821947   0
    4  645.9569403   68.6402752  621.1141522  -0.5000   0.5000   0.5000   -1.5819719    1.5814018    1.5821947   0
    4  647.3245212   70.1581343  620.9130843  -0.5000   0.5000   0.5000   -1.5819719    1.5814018    1.5821947   0
    4  648.6878983   71.8068568  619.8574933  -0.5000   0.5000   0.5000   -1.5819719    1.5814018    1.5821947   0
    4  649.6762947   72.4604368  619.1086138  -0.5000   0.5000   0.5000   -1.5819719    1.5814018    1.5821947   0
    4  650.9703197   71.3730349  619.8669686  -0.5000   0.5000   0.5000   -1.5819719    1.5814018    1.5821947   0
    4  653.0573334   69.9960217  621.5355035  -0.5000   0.5000   0.5000   -1.5819719    1.5814018    1.5821947   0
    4  655.2275872   70.0314713  622.8594904  -0.5000   0.5000   0.5000   -1.5819719    1.5814018    1.5821947   0
    4  656.9513479   71.4246230  622.9981713  -0.5000   0.5000   0.5000   -1.5819719    1.5814018    1.5821947   0
    4  658.4755713   73.0083932  622.1878050  -0.5000   0.5000   0.5000   -1.5819719    1.5814018    1.5821947   0
    4  660.3565037   73.8552445  622.2154452  -0.5000   0.5000   0.5000   -1.5819719    1.5814018    1.5821947   0
    4  661.9999969   73.5972105  623.3249441  -0.5000   0.5000   0.5000   -1.5819719    1.5814018    1.5821947   0
    4  663.1892141   72.5191049  624.2658295  -0.5000   0.5000   0.5000   -1.5819719    1.5814018    1.5821947   0
    4  665.0801510   71.7561748  624.5738192  -0.5000   0.5000   0.5000   -1.5819719    1.5814018    1.5821947   0
    4  666.8980708   71.4271695  625.5160424  -0.5000   0.5000   0.5000   -1.5819719    1.5814018    1.5821947   0
    4  667.7826571   70.9689170  627.7662806  -0.5000   0.5000   0.5000   -1.5819719    1.5814018    1.5821947   0
    4  668.6978390   70.3915199  629.9409700  -0.5000   0.5000   0.5000   -1.5819719    1.5814018    1.5821947   0
    4  669.6026707   69.7377768  631.6331856  -0.5000   0.5000   0.5000   -1.5819719    1.5814018    1.5821947   0
    4  670.5042288   69.1980007  633.3158021  -0.5000   0.5000   0.5000   -1.5819719    1.5814018    1.5821947   0
    4  671.6069699   68.4989702  634.7804991  -0.5000   0.5000   0.5000   -1.5819719    1.5814018    1.5821947   0
    4  672.4512951   68.0225405  636.1526872  -0.5000   0.5000   0.5000   -1.5819719    1.5814018    1.5821947   0
    4  673.1565070   68.9613032  637.6412584  -0.5000   0.5000   0.5000   -1.5819719    1.5814018    1.5821947   0
    4  673.8148989   70.8731001  638.1545638  -0.5000   0.5000   0.5000   -1.5819719    1.5814018    1.5821947   0
    4  673.7892474   72.5456866  637.1794747  -0.5000   0.5000   0.5000   -1.5819719    1.5814018    1.5821947   0
    4  673.5636700   74.0491275  635.8412329  -0.5000   0.5000   0.5000   -1.5819719    1.5814018    1.5821947   0
    4  674.2659312   75.9980422  634.6922726  -0.5000   0.5000   0.5000   -1.5819719    1.5814018    1.5821947   0
    4  675.3186172   77.7091724  634.2544319  -0.5000   0.5000   0.5000   -1.5819719    1.5814018    1.5821947   0
    4  676.1369895   79.0386587  634.8525737  -0.5000   0.5000   0.5000   -1.5819719    1.5814018    1.5821947   0
    4  676.5197925   81.2688932  635.3414844  -0.5000   0.5000   0.5000   -1.5819719    1.5814018    1.5821947   0
    4  676.1036000   84.3933067  635.2619000  -0.5000   0.5000   0.5000   -1.5819719    1.5814018    1.5821947   0
    5  678.2277540   82.8716802  640.2262222   0.5000   0.5000   0.5000    1.5825273    1.5809382    1.5822363   0
    5  679.9188206   84.7292873  639.5277386   0.5000   0.5000   0.5000    1.5825273    1.5809382    1.5822363   0
    5  681.0700957   86.8765697  639.3105829   0.5000   0.5000   0.5000    1.5825273    1.5809382    1.5822363   0
    5  682.4731559   88.4829107  639.3172783   0.5000   0.5000   0.5000    1.5825273    1.5809382    1.5822363   0
    5  683.8390913   89.9501374  639.4802584   0.5000   0.5000   0.5000    1.5825273    1.5809382    1.5822363   0
    5  685.0672977   91.2143067  639.3611721   0.5000   0.5000   0.5000    1.5825273    1.5809382    1.5822363   0
    5  686.5987932   92.2707101  639.8522788   0.5000   0.5000   0.5000    1.5825273    1.5809382    1.5822363   0
    5  687.9935186   94.0103145  640.8806536   0.5000   0.5000   0.5000    1.5825273    1.5809382    1.5822363   0
    5  689.2681450   95.6735641  640.9542142   0.5000   0.5000   0.5000    1.5825273    1.5809382    1.5822363   0
    5  690.9862968   96.8145241  641.1888403   0.5000   0.5000   0.5000    1.5825273    1.5809382    1.5822363   0
    5  692.4689384   98.2086847  642.2020677   0.5000   0.5000   0.5000    1.5825273    1.5809382    1.5822363   0
    5  693.6004145   99.4233314  642.5128477   0.5000   0.5000   0.5000    1.5825273    1.5809382    1.5822363   0
    5  695.5607592  100.0372944  642.0701667   0.5000   0.5000   0.5000    1.5825273    1.5809382    1.5822363   0
    6  643.1906666  116.7239000  614.6401333   0.5000  -0.5000   0.5000    1.5818298   -1.5836153    1.5823591   0
    6  644.6601275  115.4530553  613.7604025   0.5000  -0.5000   0.5000    1.5818298   -1.5836153    1.5823591   0
    6  646.2584656  114.1062640  614.3427019   0.5000  -0.5000   0.5000    1.5818298   -1.5836153    1.5823591   0
    6  648.1156285  112.4358928  615.9380206   0.5000  -0.5000   0.5000    1.5818298   -1.5836153    1.5823591   0
    6  650.0422703  110.5688630  617.8616274   0.5000  -0.5000   0.5000    1.5818298   -1.5836153    1.5823591   0
    6  651.8156773  108.7391769  619.3718357   0.5000  -0.5000   0.5000    1.5818298   -1.5836153    1.5823591   0
    6  653.5518703  107.3365077  619.9674493   0.5000  -0.5000   0.5000    1.5818298   -1.5836153    1.5823591   0
    6  655.4784166  106.4665438  620.7721359   0.5000  -0.5000   0.5000    1.5818298   -1.5836153    1.5823591   0
    6  657.4304576  105.6837455  622.3052456   0.5000  -0.5000   0.5000    1.5818298   -1.5836153    1.5823591   0
    6  659.2380439  104.3681915  623.5872134   0.5000  -0.5000   0.5000    1.5818298   -1.5836153    1.5823591   0
    6  661.1796608  102.8358294  624.3702455   0.5000  -0.5000   0.5000    1.5818298   -1.5836153    1.5823591   0
    6  662.9980192  101.3445157  625.3540248   0.5000  -0.5000   0.5000    1.5818298   -1.5836153    1.5823591   0
    6  664.3898336   99.4584618  626.3398132   0.5000  -0.5000   0.5000    1.5818298   -1.5836153    1.5823591   0
    6  665.3703577   97.1598138  627.2033924   0.5000  -0.5000   0.5000    1.5818298   -1.5836153    1.5823591   0
    6  666.1923587   94.8029983  628.0713646   0.5000  -0.5000   0.5000    1.5818298   -1.5836153    1.5823591   0
    6  667.4564221   92.8108509  628.9535751   0.5000  -0.5000   0.5000    1.5818298   -1.5836153    1.5823591   0
    6  669.0566432   91.1707277  630.3689053   0.5000  -0.5000   0.5000    1.5818298   -1.5836153    1.5823591   0
    6  670.6000570   89.5981219  632.1150614   0.5000  -0.5000   0.5000    1.5818298   -1.5836153    1.5823591   0
    6  672.2784518   88.1207004  633.6743457   0.5000  -0.5000   0.5000    1.5818298   -1.5836153    1.5823591   0
    6  674.2208152   86.5350285  634.7472177   0.5000  -0.5000   0.5000    1.5818298   -1.5836153    1.5823591   0
    6  676.1036000   84.3933067  635.2619000   0.5000  -0.5000   0.5000    1.5818298   -1.5836153    1.5823591   0
    7  296.8107560  189.8382857  605.1467440  -0.0000  -1.0000  -0.0000   -0.0006975   -3.1645535    0.0001228   0
    7  298.8315278  191.6899141  606.4315888  -0.0000  -1.0000  -0.0000   -0.0006975   -3.1645535    0.0001228   0
    7  300.5654120  193.3963342  608.0447697  -0.0000  -1.0000  -0.0000   -0.0006975   -3.1645535    0.0001228   0
    7  301.7037684  195.3087421  609.3708985  -0.0000  -1.0000  -0.0000   -0.0006975   -3.1645535    0.0001228   0
    7  302.1770865  197.2380936  610.2506787  -0.0000  -1.0000  -0.0000   -0.0006975   -3.1645535    0.0001228   0
    7  301.7822902  198.8475119  611.7383819  -0.0000  -1.0000  -0.0000   -0.0006975   -3.1645535    0.0001228   0
    7  301.4007621  199.6694991  612.6845063  -0.0000  -1.0000  -0.0000   -0.0006975   -3.1645535    0.0001228   0
    7  302.4607811  200.0297672  611.8194660  -0.0000  -1.0000  -0.0000   -0.0006975   -3.1645535    0.0001228   0
    7  304.0445831  201.4710206  610.9412543  -0.0000  -1.0000  -0.0000   -0.0006975   -3.1645535    0.0001228   0
    7  305.4454841  203.6176565  611.1107940  -0.0000  -1.0000  -0.0000   -0.0006975   -3.1645535    0.0001228   0
    7  307.1800093  205.0800675  612.0759638  -0.0000  -1.0000  -0.0000   -0.0006975   -3.1645535    0.0001228   0
    7  308.9480874  206.3712829  612.9759198  -0.0000  -1.0000  -0.0000   -0.0006975   -3.1645535    0.0001228   0
    7  310.4833090  208.1926550  612.9599696  -0.0000  -1.0000  -0.0000   -0.0006975   -3.1645535    0.0001228   0
    7  311.8137603  210.1843490  612.7374696  -0.0000  -1.0000  -0.0000   -0.0006975   -3.1645535    0.0001228   0
    7  312.8533360  212.0206195  612.6743125  -0.0000  -1.0000  -0.0000   -0.0006975   -3.1645535    0.0001228   0
    7  313.7881934  213.7533273  612.3451335  -0.0000  -1.0000  -0.0000   -0.0006975   -3.1645535    0.0001228   0
    7  315.0613821  215.7184288  611.7377994  -0.0000  -1.0000  -0.0000   -0.0006975   -3.1645535    0.0001228   0
    7  316.7568185  217.6449352  611.2518274  -0.0000  -1.0000  -0.0000   -0.0006975   -3.1645535    0.0001228   0
    7  318.5762834  218.8828557  611.3310913  -0.0000  -1.0000  -0.0000   -0.0006975   -3.1645535    0.0001228   0
    7  320.7574528  219.4801292  611.0604369  -0.0000  -1.0000  -0.0000   -0.0006975   -3.1645535    0.0001228   0