ITEM: TIMESTEP
0
ITEM: NUMBER OF ATOMS
10943
ITEM: BOX BOUNDS pp pp pp 
0.0 696.276480
0.0 696.664187
0.0 697.544586
ITEM: ATOMS id x y z tbx tby tbz sbx sby sbz loop
    0  572.4949286  674.0453571  686.2582144   0.5000  -0.5000  -0.5000    1.5824810   -1.5808494   -1.5824128   0
    0  575.2031245  675.1986673  684.3256396   0.5000  -0.5000  -0.5000    1.5824810   -1.5808494   -1.5824128   0
    0  576.9740288  676.2939839  683.5822549   0.5000  -0.5000  -0.5000    1.5824810   -1.5808494   -1.5824128   0
    0  577.6982352  677.7263670  682.6334043   0.5000  -0.5000  -0.5000    1.5824810   -1.5808494   -1.5824128   0
    0  578.0604779  679.4717312  681.0055907   0.5000  -0.5000  -0.5000    1.5824810   -1.5808494   -1.5824128   0
    0  578.7055794  680.8090692  679.2403536   0.5000  -0.5000  -0.5000    1.5824810   -1.5808494   -1.5824128   0
    0  580.4917991  681.7639013  678.4352776   0.5000  -0.5000  -0.5000    1.5824810   -1.5808494   -1.5824128   0
    0  583.5528154  682.5190101  678.5308798   0.5000  -0.5000  -0.5000    1.5824810   -1.5808494   -1.5824128   0
    0  586.7540386  682.8426859  678.6978944   0.5000  -0.5000  -0.5000    1.5824810   -1.5808494   -1.5824128   0
    0  589.2127479  682.7822147  678.8563543   0.5000  -0.5000  -0.5000    1.5824810   -1.5808494   -1.5824128   0
    0  591.2123708  682.0150269  679.0341468   0.5000  -0.5000  -0.5000    1.5824810   -1.5808494   -1.5824128   0
    0  593.2199648  680.4805471  679.4452046   0.5000  -0.5000  -0.5000    1.5824810   -1.5808494   -1.5824128   0
    0  594.9852895  678.8322009  679.8877816   0.5000  -0.5000  -0.5000    1.5824810   -1.5808494   -1.5824128   0
    0  596.0054741  677.3043043  680.5315076   0.5000  -0.5000  -0.5000    1.5824810   -1.5808494   -1.5824128   0
    0  596.0356513  675.5010992  681.2470627   0.5000  -0.5000  -0.5000    1.5824810   -1.5808494   -1.5824128   0
    0  596.0860662  673.5469994  681.3556770   0.5000  -0.5000  -0.5000    1.5824810   -1.5808494   -1.5824128   0
    0  597.0519097  671.9108349  681.3251188   0.5000  -0.5000  -0.5000    1.5824810   -1.5808494   -1.5824128   0
    0  597.6378630  670.4626864  681.3400686   0.5000  -0.5000  -0.5000    1.5824810   -1.5808494   -1.5824128   0
    0  596.8543307  669.3219619  681.0116617   0.5000  -0.5000  -0.5000    1.5824810   -1.5808494   -1.5824128   0
    0  595.2923504  668.3134025  680.4760905   0.5000  -0.5000  -0.5000    1.5824810   -1.5808494   -1.5824128   0
    0  593.6731613  666.9031251  680.6796729   0.5000  -0.5000  -0.5000    1.5824810   -1.5808494   -1.5824128   0
    0  592.6695839  664.9371651  681.6201730   0.5000  -0.5000  -0.5000    1.5824810   -1.5808494   -1.5824128   0
    0  592.6397354  662.7848343  682.4001795   0.5000  -0.5000  -0.5000    1.5824810   -1.5808494   -1.5824128   0
    0  592.9466404  661.1575213  683.3180906   0.5000  -0.5000  -0.5000    1.5824810   -1.5808494   -1.5824128   0
    0  592.7619936  659.7483671  684.8913562   0.5000  -0.5000  -0.5000    1.5824810   -1.5808494   -1.5824128   0
    0  592.2990772  658.8202324  687.1810993   0.5000  -0.5000  -0.5000    1.5824810   -1.5808494   -1.5824128   0
    0  592.4357318  658.5872287  689.1974814   0.5000  -0.5000  -0.5000    1.5824810   -1.5808494   -1.5824128   0
    0  593.4758885  657.9371994  690.0846205   0.5000  -0.5000  -0.5000    1.5824810   -1.5808494   -1.5824128   0
    0  595.1346326  656.8908070  690.4055044   0.5000  -0.5000  -0.5000    1.5824810   -1.5808494   -1.5824128   0
    0  596.7670189  655.9082945  690.1733916   0.5000  -0.5000  -0.5000    1.5824810   -1.5808494   -1.5824128   0
    0  597.0189965  654.7517048  689.0517661   0.5000  -0.5000  -0.5000    1.5824810   -1.5808494   -1.5824128   0
    0  595.9100410  653.6402709  688.0170815   0.5000  -0.5000  -0.5000    1.5824810   -1.5808494   -1.5824128   0
    0  594.5449291  652.5984928  687.7403410   0.5000  -0.5000  -0.5000    1.5824810   -1.5808494   -1.5824128   0
    0  592.8699353  651.1764807  687.5119225   0.5000  -0.5000  -0.5000    1.5824810   -1.5808494   -1.5824128   0
    0  591.0227910  650.0080803  687.1211833   0.5000  -0.5000  -0.5000    1.5824810   -1.5808494   -1.5824128   0
    0  589.9721302  649.5503403  687.7637416   0.5000  -0.5000  -0.5000    1.5824810   -1.5808494   -1.5824128   0
    0  588.6436401  649.2468568  689.8562872   0.5000  -0.5000  -0.5000    1.5824810   -1.5808494   -1.5824128   0
    0  587.1224213  649.2116011  691.2445019   0.5000  -0.5000  -0.5000    1.5824810   -1.5808494   -1.5824128   0
    0  588.1559063  648.8471540  690.7737668   0.5000  -0.5000  -0.5000    1.5824810   -1.5808494   -1.5824128   0
    0  590.3932365  647.7751647  690.1026926   0.5000  -0.5000  -0.5000    1.5824810   -1.5808494   -1.5824128   0
    0  591.9141524  647.0432934  690.1948783   0.5000  -0.5000  -0.5000    1.5824810   -1.5808494   -1.5824128   0
    0  593.4190025  646.7074280  691.1198737   0.5000  -0.5000  -0.5000    1.5824810   -1.5808494   -1.5824128   0
    0  595.2464280  646.8870391  692.5471313   0.5000  -0.5000  -0.5000    1.5824810   -1.5808494   -1.5824128   0
    0  597.1629735  647.4954512  693.7535152   0.5000  -0.5000  -0.5000    1.5824810   -1.5808494   -1.5824128   0
    0  598.3878500  647.8053677  695.1085055   0.5000  -0.5000  -0.5000    1.5824810   -1.5808494   -1.5824128   0
    0  599.2092151  647.8215749  696.9621136   0.5000  -0.5000  -0.5000    1.5824810   -1.5808494   -1.5824128   0
    0  600.3042551  647.7058545  698.8516021   0.5000  -0.5000  -0.5000    1.5824810   -1.5808494   -1.5824128   0
    0  601.1421060  646.8729545  699.7536628   0.5000  -0.5000  -0.5000    1.5824810   -1.5808494   -1.5824128   0
    0  600.8447149  645.5857222  699.0618820   0.5000  -0.5000  -0.5000    1.5824810   -1.5808494   -1.5824128   0
    0  600.0042694  644.2356885  697.6665597   0.5000  -0.5000  -0.5000    1.5824810   -1.5808494   -1.5824128   0
    0  599.2273897  642.2647618  696.8514605   0.5000  -0.5000  -0.5000    1.5824810   -1.5808494   -1.5824128   0
    0  597.9274446  640.4096649  697.2930808   0.5000  -0.5000  -0.5000    1.5824810   -1.5808494   -1.5824128   0
    0  597.0162656  639.0878173  698.6231010   0.5000  -0.5000  -0.5000    1.5824810   -1.5808494   -1.5824128   0
    0  597.2776295  637.9214125  700.1720734   0.5000  -0.5000  -0.5000    1.5824810   -1.5808494   -1.5824128   0
    0  597.5258940  636.7547592  701.6400795   0.5000  -0.5000  -0.5000    1.5824810   -1.5808494   -1.5824128   0
    0  596.8930317  635.5341015  702.9175028   0.5000  -0.5000  -0.5000    1.5824810   -1.5808494   -1.5824128   0
    0  596.0487219  634.0012099  703.6765114   0.5000  -0.5000  -0.5000    1.5824810   -1.5808494   -1.5824128   0
    0  596.1031607  632.3503685  704.8303382   0.5000  -0.5000  -0.5000    1.5824810   -1.5808494   -1.5824128   0
    0  596.9575365  631.9179519  706.6727497   0.5000  -0.5000  -0.5000    1.5824810   -1.5808494   -1.5824128   0
    0  597.1058272  632.0282289  706.6370231   0.5000  -0.5000  -0.5000    1.5824810   -1.5808494   -1.5824128   0
    0  595.8243704  631.0641768  705.3979000   0.5000  -0.5000  -0.5000    1.5824810   -1.5808494   -1.5824128   0
    0  594.4066013  629.2336932  705.4479188   0.5000  -0.5000  -0.5000    1.5824810   -1.5808494   -1.5824128   0
    0  593.8275328  627.3563019  706.8068629   0.5000  -0.5000  -0.5000    1.5824810   -1.5808494   -1.5824128   0
    0  594.0354065  625.9032624  708.7036220   0.5000  -0.5000  -0.5000    1.5824810   -1.5808494   -1.5824128   0
    0  594.2167003  624.8267303  710.1168892   0.5000  -0.5000  -0.5000    1.5824810   -1.5808494   -1.5824128   0
    0  593.5678290  623.6674181  711.1613840   0.5000  -0.5000  -0.5000    1.5824810   -1.5808494   -1.5824128   0
    0  592.6243393  622.3758597  712.9652369   0.5000  -0.5000  -0.5000    1.5824810   -1.5808494   -1.5824128   0
    0  592.0055655  621.2560512  715.1035156   0.5000  -0.5000  -0.5000    1.5824810   -1.5808494   -1.5824128   0
    0  592.0876896  620.4511557  716.3885980   0.5000  -0.5000  -0.5000    1.5824810   -1.5808494   -1.5824128   0
    0  592.8127071  620.7222401  717.3650601   0.5000  -0.5000  -0.5000    1.5824810   -1.5808494   -1.5824128   0
    0  593.7976160  621.6678939  718.6711442   0.5000  -0.5000  -0.5000    1.5824810   -1.5808494   -1.5824128   0
    0  595.0835976  622.3613947  720.1487871   0.5000  -0.5000  -0.5000    1.5824810   -1.5808494   -1.5824128   0
    0  596.2557323  623.6331305  721.7193366   0.5000  -0.5000  -0.5000    1.5824810   -1.5808494   -1.5824128   0
    0  597.1101382  625.9910065  723.0860737   0.5000  -0.5000  -0.5000    1.5824810   -1.5808494   -1.5824128   0
    0  598.2977100  628.3274516  723.5396966   0.5000  -0.5000  -0.5000    1.5824810   -1.5808494   -1.5824128   0
    0  599.2991798  630.0673005  722.8638300   0.5000  -0.5000  -0.5000    1.5824810   -1.5808494   -1.5824128   0
    0  598.9519923  631.5301443  721.5774450   0.5000  -0.5000  -0.5000    1.5824810   -1.5808494   -1.5824128   0
    0  597.8657144  633.0721670  720.3475879   0.5000  -0.5000  -0.5000    1.5824810   -1.5808494   -1.5824128   0
    0  597.5091280  635.3657989  719.4027756   0.5000  -0.5000  -0.5000    1.5824810   -1.5808494   -1.5824128   0
    0  598.2219216  637.6953471  718.6643705   0.5000  -0.5000  -0.5000    1.5824810   -1.5808494   -1.5824128   0
    0  599.4045531  638.8774137  718.9917856   0.5000  -0.5000  -0.5000    1.5824810   -1.5808494   -1.5824128   0
    0  599.9646285  639.6846638  720.6992401   0.5000  -0.5000  -0.5000    1.5824810   -1.5808494   -1.5824128   0
    0  600.0105604  641.1277379  721.9688577   0.5000  -0.5000  -0.5000    1.5824810   -1.5808494   -1.5824128   0
    0  600.7264968  642.9683481  721.5882426   0.5000  -0.5000  -0.5000    1.5824810   -1.5808494   -1.5824128   0
    0  601.4357740  645.3889255  720.9371032   0.5000  -0.5000  -0.5000    1.5824810   -1.5808494   -1.5824128   0
    0  601.3933315  647.9094704  720.5687953   0.5000  -0.5000  -0.5000    1.5824810   -1.5808494   -1.5824128   0
    0  601.1706393  649.4610387  719.7020337   0.5000  -0.5000  -0.5000    1.5824810   -1.5808494   -1.5824128   0
    0  601.4419977  651.2087985  718.5183735   0.5000  -0.5000  -0.5000    1.5824810   -1.5808494   -1.5824128   0
    0  601.9229976  653.5982396  717.0033378   0.5000  -0.5000  -0.5000    1.5824810   -1.5808494   -1.5824128   0
    0  602.3869829  655.4400290  715.8109536   0.5000  -0.5000  -0.5000    1.5824810   -1.5808494   -1.5824128   0
    0  603.4796996  656.7105981  716.0803735   0.5000  -0.5000  -0.5000    1.5824810   -1.5808494   -1.5824128   0
    0  605.2327560  657.6846080  717.0534379   0.5000  -0.5000  -0.5000    1.5824810   -1.5808494   -1.5824128   0
    0  606.9591883  658.9924004  717.5452524   0.5000  -0.5000  -0.5000    1.5824810   -1.5808494   -1.5824128   0
    0  607.5447165  661.3275324  717.7244708   0.5000  -0.5000  -0.5000    1.5824810   -1.5808494   -1.5824128   0
    0  607.7508513  663.5982726  717.9055659   0.5000  -0.5000  -0.5000    1.5824810   -1.5808494   -1.5824128   0
    0  608.8776904  665.2986925  718.0752695   0.5000  -0.5000  -0.5000    1.5824810   -1.5808494   -1.5824128   0
    0  609.9876992  667.3358218  718.2248260   0.5000  -0.5000  -0.5000    1.5824810   -1.5808494   -1.5824128   0
    0  610.4231692  669.8323597  717.9494533   0.5000  -0.5000  -0.5000    1.5824810   -1.5808494   -1.5824128   0
    0  610.9674827  672.1433813  717.4234911   0.5000  -0.5000  -0.5000    1.5824810   -1.5808494   -1.5824128   0
    0  611.8920741  673.9528505  716.9351975   0.5000  -0.5000  -0.5000    1.5824810   -1.5808494   -1.5824128   0
    0  612.6263123  675.5530293  715.7707429   0.5000  -0.5000  -0.5000    1.5824810   -1.5808494   -1.5824128   0
    0  612.8913145  677.2496672  714.6341335   0.5000  -0.5000  -0.5000    1.5824810   -1.5808494   -1.5824128   0
    0  612.5586208  679.1079014  714.3253283   0.5000  -0.5000  -0.5000    1.5824810   -1.5808494   -1.5824128   0
    0  612.4656869  680.7326111  713.6613581   0.5000  -0.5000  -0.5000    1.5824810   -1.5808494   -1.5824128   0
    0  612.9477461  682.0915585  712.1920608   0.5000  -0.5000  -0.5000    1.5824810   -1.5808494   -1.5824128   0
    0  612.6421585  683.4172381  710.4042317   0.5000  -0.5000  -0.5000    1.5824810   -1.5808494   -1.5824128   0
    0  611.5147950  683.7054601  708.7544874   0.5000  -0.5000  -0.5000    1.5824810   -1.5808494   -1.5824128   0
    0  610.7616549  682.8092611  707.0258936   0.5000  -0.5000  -0.5000    1.5824810   -1.5808494   -1.5824128   0
    0  609.8996993  682.2918825  705.2428899   0.5000  -0.5000  -0.5000    1.5824810   -1.5808494   -1.5824128   0
    0  608.1445902  682.0709650  704.0416234   0.5000  -0.5000  -0.5000    1.5824810   -1.5808494   -1.5824128   0
    0  606.1068922  681.7722371  703.1146858   0.5000  -0.5000  -0.5000    1.5824810   -1.5808494   -1.5824128   0
    0  604.0875644  682.2106061  701.7453261   0.5000  -0.5000  -0.5000    1.5824810   -1.5808494   -1.5824128   0
    0  602.5295478  682.9316248  699.6137079   0.5000  -0.5000  -0.5000    1.5824810   -1.5808494   -1.5824128   0
    0  601.6520813  683.3044469  697.0964980   0.5000  -0.5000  -0.5000    1.5824810   -1.5808494   -1.5824128   0
    0  601.1660068  684.0473328  695.1223817   0.5000  -0.5000  -0.5000    1.5824810   -1.5808494   -1.5824128   0
    0  600.7973091  685.3571420  694.1040401   0.5000  -0.5000  -0.5000    1.5824810   -1.5808494   -1.5824128   0
    0  599.8708341  686.7045382  693.5207298   0.5000  -0.5000  -0.5000    1.5824810   -1.5808494   -1.5824128   0
    0  598.1339819  688.2710494  693.0918807   0.5000  -0.5000  -0.5000    1.5824810   -1.5808494   -1.5824128   0
    0  596.5456853  689.5492553  692.2282263   0.5000  -0.5000  -0.5000    1.5824810   -1.5808494   -1.5824128   0
    0  596.8922808  689.5668551  691.3574231   0.5000  -0.5000  -0.5000    1.5824810   -1.5808494   -1.5824128   0
    0  599.0941193  689.2538983  691.8627921   0.5000  -0.5000  -0.5000    1.5824810   -1.5808494   -1.5824128   0
    0  600.8915350  690.3605184  692.2761546   0.5000  -0.5000  -0.5000    1.5824810   -1.5808494   -1.5824128   0
    0  601.5078046  692.4221527  691.0782444   0.5000  -0.5000  -0.5000    1.5824810   -1.5808494   -1.5824128   0
    0  602.3666076  693.4710691  689.3231485   0.5000  -0.5000  -0.5000    1.5824810   -1.5808494   -1.5824128   0
    0  603.9640664  693.0023306  688.1238095   0.5000  -0.5000  -0.5000    1.5824810   -1.5808494   -1.5824128   0
    0  605.7401094  692.3409050  688.2029622   0.5000  -0.5000  -0.5000    1.5824810   -1.5808494   -1.5824128   0
    0  607.5462442  692.0117501  688.9347317   0.5000  -0.5000  -0.5000    1.5824810   -1.5808494   -1.5824128   0
    0  609.1979230  691.4246682  689.1191456   0.5000  -0.5000  -0.5000    1.5824810   -1.5808494   -1.5824128   0
    0  610.4613065  690.9790061  689.7011656   0.5000  -0.5000  -0.5000    1.5824810   -1.5808494   -1.5824128   0
    0  611.9160180  690.7869077  691.3441749   0.5000  -0.5000  -0.5000    1.5824810   -1.5808494   -1.5824128   0
    0  613.7827878  690.6963046  693.4742782   0.5000  -0.5000  -0.5000    1.5824810   -1.5808494   -1.5824128   0
    0  615.3412361  690.9561738  695.4725688   0.5000  -0.5000  -0.5000    1.5824810   -1.5808494   -1.5824128   0
    0  617.5530216  691.2334714  696.6430233   0.5000  -0.5000  -0.5000    1.5824810   -1.5808494   -1.5824128   0
    0  620.3989458  691.8357423  696.9369827   0.5000  -0.5000  -0.5000    1.5824810   -1.5808494   -1.5824128   0
    0  622.2094574  693.3161299  696.9106099   0.5000  -0.5000  -0.5000    1.5824810   -1.5808494   -1.5824128   0
    0  623.6313491  694.4876288  697.0442631   0.5000  -0.5000  -0.5000    1.5824810   -1.5808494   -1.5824128   0
    0  625.6693251  695.2745884  697.4326627   0.5000  -0.5000  -0.5000    1.5824810   -1.5808494   -1.5824128   0
    0  627.8891394  696.6561270  697.8580823   0.5000  -0.5000  -0.5000    1.5824810   -1.5808494   -1.5824128   0
    0  629.7141412  697.6087969  697.8318780   0.5000  -0.5000  -0.5000    1.5824810   -1.5808494   -1.5824128   0
    0  631.4948726  697.9658795  697.7151709   0.5000  -0.5000  -0.5000    1.5824810   -1.5808494   -1.5824128   0
    0  633.2579023  698.8079117  697.7230218   0.5000  -0.5000  -0.5000    1.5824810   -1.5808494   -1.5824128   0
    0  634.1223022  700.2808926  697.0093867   0.5000  -0.5000  -0.5000    1.5824810   -1.5808494   -1.5824128   0
    0  634.4133663  701.7476309  695.2409901   0.5000  -0.5000  -0.5000    1.5824810   -1.5808494   -1.5824128   0
    0  635.5270388  702.1826325  692.9917617   0.5000  -0.5000  -0.5000    1.5824810   -1.5808494   -1.5824128   0
    0  637.7637547  701.8518464  691.6454259   0.5000  -0.5000  -0.5000    1.5824810   -1.5808494   -1.5824128   0
    0  640.3159258  701.5483970  691.1618475   0.5000  -0.5000  -0.5000    1.5824810   -1.5808494   -1.5824128   0
    0  642.5604090  700.4571457  690.7516899   0.5000  -0.5000  -0.5000    1.5824810   -1.5808494   -1.5824128   0
    0  643.9034735  698.1629897  691.0618864   0.5000  -0.5000  -0.5000    1.5824810   -1.5808494   -1.5824128   0
    0  644.4941839  696.0235002  692.3113565   0.5000  -0.5000  -0.5000    1.5824810   -1.5808494   -1.5824128   0
    0  645.3586182  694.6043407  693.5375060   0.5000  -0.5000  -0.5000    1.5824810   -1.5808494   -1.5824128   0
    0  646.6601103  693.2666159  694.3880275   0.5000  -0.5000  -0.5000    1.5824810   -1.5808494   -1.5824128   0
    0  647.9977109  692.0002690  695.3953566   0.5000  -0.5000  -0.5000    1.5824810   -1.5808494   -1.5824128   0
    0  649.1609828  690.8857787  696.7013570   0.5000  -0.5000  -0.5000    1.5824810   -1.5808494   -1.5824128   0
    0  650.5604523  690.0193363  697.8456697   0.5000  -0.5000  -0.5000    1.5824810   -1.5808494   -1.5824128   0
    0  652.9289078  689.6249376  698.2442931   0.5000  -0.5000  -0.5000    1.5824810   -1.5808494   -1.5824128   0
    0  655.6472028  689.2196778  697.8608858   0.5000  -0.5000  -0.5000    1.5824810   -1.5808494   -1.5824128   0
    0  658.1044092  688.0763704  697.2207285   0.5000  -0.5000  -0.5000    1.5824810   -1.5808494   -1.5824128   0
    0  660.3544400  686.1807928  696.8496389   0.5000  -0.5000  -0.5000    1.5824810   -1.5808494   -1.5824128   0
    0  661.8545741  684.6261240  696.8100338   0.5000  -0.5000  -0.5000    1.5824810   -1.5808494   -1.5824128   0
    0  663.1097626  684.3093528  696.8149135   0.5000  -0.5000  -0.5000    1.5824810   -1.5808494   -1.5824128   0
    0  665.0349131  685.2795001  696.6716777   0.5000  -0.5000  -0.5000    1.5824810   -1.5808494   -1.5824128   0
    0  666.8875774  687.0561669  696.2267870   0.5000  -0.5000  -0.5000    1.5824810   -1.5808494   -1.5824128   0
    0  668.2820477  688.6911067  695.0934983   0.5000  -0.5000  -0.5000    1.5824810   -1.5808494   -1.5824128   0
    0  669.6465936  689.9306274  693.3836374   0.5000  -0.5000  -0.5000    1.5824810   -1.5808494   -1.5824128   0
    0  671.1338444  690.5599939  691.8664331   0.5000  -0.5000  -0.5000    1.5824810   -1.5808494   -1.5824128   0
    0  672.9062429  690.4753933  691.1348169   0.5000  -0.5000  -0.5000    1.5824810   -1.5808494   -1.5824128   0
    0  674.8575297  689.8120544  691.1906223   0.5000  -0.5000  -0.5000    1.5824810   -1.5808494   -1.5824128   0
    0  677.0273276  688.5379416  691.5699552   0.5000  -0.5000  -0.5000    1.5824810   -1.5808494   -1.5824128   0
    0  679.3645117  688.1757352  691.8272110   0.5000  -0.5000  -0.5000    1.5824810   -1.5808494   -1.5824128   0
    0  681.4923080  688.9525496  691.5332305   0.5000  -0.5000  -0.5000    1.5824810   -1.5808494   -1.5824128   0
    0  683.7892213  688.9746313  690.4560301   0.5000  -0.5000  -0.5000    1.5824810   -1.5808494   -1.5824128   0
    0  686.3088864  687.9995112  689.3491459   0.5000  -0.5000  -0.5000    1.5824810   -1.5808494   -1.5824128   0
    0  688.4647994  686.8650072  689.0832529   0.5000  -0.5000  -0.5000    1.5824810   -1.5808494   -1.5824128   0
    0  690.1664199  685.8835192  689.6116388   0.5000  -0.5000  -0.5000    1.5824810   -1.5808494   -1.5824128   0
    0  691.4135113  684.8876610  689.9424607   0.5000  -0.5000  -0.5000    1.5824810   -1.5808494   -1.5824128   0
    0  692.4301738  683.6461524  689.2415377   0.5000  -0.5000  -0.5000    1.5824810   -1.5808494   -1.5824128   0
    0  693.4694766  682.0567065  688.5768447   0.5000  -0.5000  -0.5000    1.5824810   -1.5808494   -1.5824128   0
    0  694.5326915  680.0639279  688.7400746   0.5000  -0.5000  -0.5000    1.5824810   -1.5808494   -1.5824128   0
    0  695.4158780  678.0840404  689.0496591   0.5000  -0.5000  -0.5000    1.5824810   -1.5808494   -1.5824128   0
    0  695.9635687  676.3220746  689.3322947   0.5000  -0.5000  -0.5000    1.5824810   -1.5808494   -1.5824128   0
    0  697.4769528  674.8403606  689.4138312   0.5000  -0.5000  -0.5000    1.5824810   -1.5808494   -1.5824128   0
    0  699.8668389  673.9614487  689.7338558   0.5000  -0.5000  -0.5000    1.5824810   -1.5808494   -1.5824128   0
    0  701.2385742  673.8306219  690.2500247   0.5000  -0.5000  -0.5000    1.5824810   -1.5808494   -1.5824128   0
    0  702.6671558  673.5897884  689.7408393   0.5000  -0.5000  -0.5000    1.5824810   -1.5808494   -1.5824128   0
    0  705.5276391  671.6444799  689.1303530   0.5000  -0.5000  -0.5000    1.5824810   -1.5808494   -1.5824128   0
    1  421.1050000  462.6942143  600.6730001  -0.5000   0.5000   0.5000   -1.5824810    1.5808494    1.5824128   0
    1  420.9688197  465.3972414  601.3354509  -0.5000   0.5000   0.5000   -1.5824810    1.5808494    1.5824128   0
    1  420.1842512  467.9412955  601.1355625  -0.5000   0.5000   0.5000   -1.5824810    1.5808494    1.5824128   0
    1  420.0843318  470.4257985  600.9516293  -0.5000   0.5000   0.5000   -1.5824810    1.5808494    1.5824128   0
    1  421.0326743  472.3574401  601.3680066  -0.5000   0.5000   0.5000   -1.5824810    1.5808494    1.5824128   0
    1  422.1429845  474.0447750  601.8142948  -0.5000   0.5000   0.5000   -1.5824810    1.5808494    1.5824128   0
    1  422.7982426  476.7494792  601.7283251  -0.5000   0.5000   0.5000   -1.5824810    1.5808494    1.5824128   0
    1  423.3670318  479.6610082  602.0196876  -0.5000   0.5000   0.5000   -1.5824810    1.5808494    1.5824128   0
    1  424.0480795  481.3622076  603.3773483  -0.5000   0.5000   0.5000   -1.5824810    1.5808494    1.5824128   0
    1  424.7557489  481.6635911  605.2525142  -0.5000   0.5000   0.5000   -1.5824810    1.5808494    1.5824128   0
    1  425.6755426  480.7586848  607.0036079  -0.5000   0.5000   0.5000   -1.5824810    1.5808494    1.5824128   0
    1  426.5839452  479.3504265  608.4968724  -0.5000   0.5000   0.5000   -1.5824810    1.5808494    1.5824128   0
    1  427.0312479  478.0122016  610.2939696  -0.5000   0.5000   0.5000   -1.5824810    1.5808494    1.5824128   0
    1  426.9424418  476.9562676  612.0437014  -0.5000   0.5000   0.5000   -1.5824810    1.5808494    1.5824128   0
    1  426.4388993  475.2057923  611.8349064  -0.5000   0.5000   0.5000   -1.5824810    1.5808494    1.5824128   0
    1  425.3551809  471.5202345  609.0224833  -0.5000   0.5000   0.5000   -1.5824810    1.5808494    1.5824128   0
    2  500.9567970  725.2895278  545.3197270   0.5000  -0.5000  -0.5000    1.5824810   -1.5808494   -1.5824128   0
    2  503.8585914  724.5451125  547.4532939   0.5000  -0.5000  -0.5000    1.5824810   -1.5808494   -1.5824128   0
    2  504.8257837  723.2828774  549.0840545   0.5000  -0.5000  -0.5000    1.5824810   -1.5808494   -1.5824128   0
    2  505.4537634  720.9350991  549.8908859   0.5000  -0.5000  -0.5000    1.5824810   -1.5808494   -1.5824128   0
    2  505.8619975  718.7093212  550.1360489   0.5000  -0.5000  -0.5000    1.5824810   -1.5808494   -1.5824128   0
    2  505.3782979  718.4013698  551.1712356   0.5000  -0.5000  -0.5000    1.5824810   -1.5808494   -1.5824128   0
    2  505.1183061  719.3977224  553.2605149   0.5000  -0.5000  -0.5000    1.5824810   -1.5808494   -1.5824128   0
    2  505.7575691  720.4367951  555.1322831   0.5000  -0.5000  -0.5000    1.5824810   -1.5808494   -1.5824128   0
    2  506.9022321  721.1049822  556.7092949   0.5000  -0.5000  -0.5000    1.5824810   -1.5808494   -1.5824128   0
    2  507.7168024  721.4234001  558.9880665   0.5000  -0.5000  -0.5000    1.5824810   -1.5808494   -1.5824128   0
    2  508.2094667  721.2714140  561.7564407   0.5000  -0.5000  -0.5000    1.5824810   -1.5808494   -1.5824128   0
    2  509.2984872  720.4140597  563.9775491   0.5000  -0.5000  -0.5000    1.5824810   -1.5808494   -1.5824128   0
    2  511.0396867  719.5380272  564.9847879   0.5000  -0.5000  -0.5000    1.5824810   -1.5808494   -1.5824128   0
    2  512.1327853  719.0277553  565.7377390   0.5000  -0.5000  -0.5000    1.5824810   -1.5808494   -1.5824128   0
    2  512.2182306  718.9559684  567.5859353   0.5000  -0.5000  -0.5000    1.5824810   -1.5808494   -1.5824128   0
    2  512.6084448  719.4276606  569.8738800   0.5000  -0.5000  -0.5000    1.5824810   -1.5808494   -1.5824128   0
    2  513.9533024  719.7064658  571.7273891   0.5000  -0.5000  -0.5000    1.5824810   -1.5808494   -1.5824128   0
    2  515.7174988  719.4804095  573.2636568   0.5000  -0.5000  -0.5000    1.5824810   -1.5808494   -1.5824128   0
    2  517.2364718  719.4923444  574.9040214   0.5000  -0.5000  -0.5000    1.5824810   -1.5808494   -1.5824128   0
    2  518.6361564  719.7736406  576.4963939   0.5000  -0.5000  -0.5000    1.5824810   -1.5808494   -1.5824128   0
    2  520.1192768  718.9261840  577.6781028   0.5000  -0.5000  -0.5000    1.5824810   -1.5808494   -1.5824128   0
    2  520.9600209  716.9337820  578.4568516   0.5000  -0.5000  -0.5000    1.5824810   -1.5808494   -1.5824128   0
    2  520.6999662  714.9984583  579.2697503   0.5000  -0.5000  -0.5000    1.5824810   -1.5808494   -1.5824128   0
    2  520.3292183  713.3208279  580.7308616   0.5000  -0.5000  -0.5000    1.5824810   -1.5808494   -1.5824128   0
    2  520.7368598  711.8331007  582.4492145   0.5000  -0.5000  -0.5000    1.5824810   -1.5808494   -1.5824128   0
    2  521.0847931  710.9834581  583.9196328   0.5000  -0.5000  -0.5000    1.5824810   -1.5808494   -1.5824128   0
    2  521.2411412  710.4609120  585.3297404   0.5000  -0.5000  -0.5000    1.5824810   -1.5808494   -1.5824128   0
    2  521.7116352  709.5471338  586.5713402   0.5000  -0.5000  -0.5000    1.5824810   -1.5808494   -1.5824128   0
    2  522.0950585  709.1973629  587.1052355   0.5000  -0.5000  -0.5000    1.5824810   -1.5808494   -1.5824128   0
    2  522.6521336  709.4876619  587.4254072   0.5000  -0.5000  -0.5000    1.5824810   -1.5808494   -1.5824128   0
    2  522.9629939  709.5412122  588.6048421   0.5000  -0.5000  -0.5000    1.5824810   -1.5808494   -1.5824128   0
    2  523.0874490  709.8032308  590.2217143   0.5000  -0.5000  -0.5000    1.5824810   -1.5808494   -1.5824128   0
    2  524.1885512  710.0708313  591.4536523   0.5000  -0.5000  -0.5000    1.5824810   -1.5808494   -1.5824128   0
    2  525.8182113  709.6333975  592.3606079   0.5000  -0.5000  -0.5000    1.5824810   -1.5808494   -1.5824128   0
    2  527.0576747  708.6191228  593.8871220   0.5000  -0.5000  -0.5000    1.5824810   -1.5808494   -1.5824128   0
    2  528.3466579  707.6124791  596.1796116   0.5000  -0.5000  -0.5000    1.5824810   -1.5808494   -1.5824128   0
    2  530.1067417  706.8541957  597.9018745   0.5000  -0.5000  -0.5000    1.5824810   -1.5808494   -1.5824128   0
    2  531.4476282  705.8629140  598.7951489   0.5000  -0.5000  -0.5000    1.5824810   -1.5808494   -1.5824128   0
    2  531.8647587  704.3538100  599.4903954   0.5000  -0.5000  -0.5000    1.5824810   -1.5808494   -1.5824128   0
    2  531.6741417  702.6300703  600.6955556   0.5000  -0.5000  -0.5000    1.5824810   -1.5808494   -1.5824128   0
    2  531.6803873  701.5020593  602.7690402   0.5000  -0.5000  -0.5000    1.5824810   -1.5808494   -1.5824128   0
    2  532.8704315  701.4006547  604.6153568   0.5000  -0.5000  -0.5000    1.5824810   -1.5808494   -1.5824128   0
    2  534.6684746  701.2303499  605.6699974   0.5000  -0.5000  -0.5000    1.5824810   -1.5808494   -1.5824128   0
    2  535.6807290  700.2286594  606.9229392   0.5000  -0.5000  -0.5000    1.5824810   -1.5808494   -1.5824128   0
    2  536.0665396  698.9122109  608.6281489   0.5000  -0.5000  -0.5000    1.5824810   -1.5808494   -1.5824128   0
    2  537.1567738  697.5023399  610.0543810   0.5000  -0.5000  -0.5000    1.5824810   -1.5808494   -1.5824128   0
    2  539.3040095  696.2907953  611.0547983   0.5000  -0.5000  -0.5000    1.5824810   -1.5808494   -1.5824128   0
    2  541.6268033  695.8120261  611.9116772   0.5000  -0.5000  -0.5000    1.5824810   -1.5808494   -1.5824128   0
    2  543.4869289  695.4516073  612.8838499   0.5000  -0.5000  -0.5000    1.5824810   -1.5808494   -1.5824128   0
    2  544.7420984  694.2013526  613.9484848   0.5000  -0.5000  -0.5000    1.5824810   -1.5808494   -1.5824128   0
    2  545.4352003  692.1732971  614.5133639   0.5000  -0.5000  -0.5000    1.5824810   -1.5808494   -1.5824128   0
    2  545.5287643  690.0656861  614.7476760   0.5000  -0.5000  -0.5000    1.5824810   -1.5808494   -1.5824128   0
    2  545.2590970  687.5420039  615.1865119   0.5000  -0.5000  -0.5000    1.5824810   -1.5808494   -1.5824128   0
    2  545.0069176  684.2783635  615.3152091   0.5000  -0.5000  -0.5000    1.5824810   -1.5808494   -1.5824128   0
    2  544.5993491  681.4949967  614.8148364   0.5000  -0.5000  -0.5000    1.5824810   -1.5808494   -1.5824128   0
    2  543.8689478  680.1073470  613.6207795   0.5000  -0.5000  -0.5000    1.5824810   -1.5808494   -1.5824128   0
    2  542.5108805  679.6389532  612.1124419   0.5000  -0.5000  -0.5000    1.5824810   -1.5808494   -1.5824128   0
    2  540.6851451  678.5619175  611.3763141   0.5000  -0.5000  -0.5000    1.5824810   -1.5808494   -1.5824128   0