ITEM: TIMESTEP
0
ITEM: NUMBER OF ATOMS
12269
ITEM: BOX BOUNDS pp pp pp 
0.0 696.663246
0.0 696.659175
0.0 697.126817
ITEM: ATOMS id x y z tbx tby tbz sbx sby sbz loop
    0  117.5825833  302.2393333   70.1688792  -0.5000   0.5000   0.5000   -1.5822912    1.5811188    1.5823470   0
    0  119.8958102  300.6432433   69.2692569  -0.5000   0.5000   0.5000   -1.5822912    1.5811188    1.5823470   0
    0  122.1155488  299.7863508   69.2391508  -0.5000   0.5000   0.5000   -1.5822912    1.5811188    1.5823470   0
    0  124.9700562  299.2716316   69.5321007  -0.5000   0.5000   0.5000   -1.5822912    1.5811188    1.5823470   0
    0  128.1979219  299.3448701   69.6427112  -0.5000   0.5000   0.5000   -1.5822912    1.5811188    1.5823470   0
    0  130.9583449  299.5433186   69.4494244  -0.5000   0.5000   0.5000   -1.5822912    1.5811188    1.5823470   0
    0  133.1370382  298.5818281   69.2143696  -0.5000   0.5000   0.5000   -1.5822912    1.5811188    1.5823470   0
    0  135.1241902  296.8804619   69.0737162  -0.5000   0.5000   0.5000   -1.5822912    1.5811188    1.5823470   0
    0  137.5805414  295.9530230   69.0681389  -0.5000   0.5000   0.5000   -1.5822912    1.5811188    1.5823470   0
    0  140.6142079  295.8308678   69.0433390  -0.5000   0.5000   0.5000   -1.5822912    1.5811188    1.5823470   0
    0  143.6314480  295.5944929   68.7677901  -0.5000   0.5000   0.5000   -1.5822912    1.5811188    1.5823470   0
    0  146.5826540  295.2696743   68.7360752  -0.5000   0.5000   0.5000   -1.5822912    1.5811188    1.5823470   0
    0  149.1042034  295.0872790   69.0916278  -0.5000   0.5000   0.5000   -1.5822912    1.5811188    1.5823470   0
    0  150.8409419  295.1260709   69.2006913  -0.5000   0.5000   0.5000   -1.5822912    1.5811188    1.5823470   0
    0  152.7375491  295.5782964   69.1817332  -0.5000   0.5000   0.5000   -1.5822912    1.5811188    1.5823470   0
    0  154.9913752  296.2823953   69.4581809  -0.5000   0.5000   0.5000   -1.5822912    1.5811188    1.5823470   0
    0  157.0722440  296.6019486   69.5029045  -0.5000   0.5000   0.5000   -1.5822912    1.5811188    1.5823470   0
    0  158.9957953  296.7365611   69.0510176  -0.5000   0.5000   0.5000   -1.5822912    1.5811188    1.5823470   0
    0  160.8558191  297.4997843   68.6057018  -0.5000   0.5000   0.5000   -1.5822912    1.5811188    1.5823470   0
    0  162.9887995  298.6910514   68.5572442  -0.5000   0.5000   0.5000   -1.5822912    1.5811188    1.5823470   0
    0  165.3837330  299.7323447   69.2205940  -0.5000   0.5000   0.5000   -1.5822912    1.5811188    1.5823470   0
    0  167.7485482  300.3368919   70.0431234  -0.5000   0.5000   0.5000   -1.5822912    1.5811188    1.5823470   0
    0  170.0661892  300.6275396   70.2640838  -0.5000   0.5000   0.5000   -1.5822912    1.5811188    1.5823470   0
    0  172.4745787  300.9070210   70.3974903  -0.5000   0.5000   0.5000   -1.5822912    1.5811188    1.5823470   0
    0  174.8189062  301.4449614   70.8489689  -0.5000   0.5000   0.5000   -1.5822912    1.5811188    1.5823470   0
    0  176.4202555  302.5190878   71.1182767  -0.5000   0.5000   0.5000   -1.5822912    1.5811188    1.5823470   0
    0  177.4235167  303.8539342   70.5057059  -0.5000   0.5000   0.5000   -1.5822912    1.5811188    1.5823470   0
    0  178.4814931  305.1248236   69.3831699  -0.5000   0.5000   0.5000   -1.5822912    1.5811188    1.5823470   0
    0  179.5410912  306.6057566   68.5831662  -0.5000   0.5000   0.5000   -1.5822912    1.5811188    1.5823470   0
    0  180.4639279  308.3105550   67.5727245  -0.5000   0.5000   0.5000   -1.5822912    1.5811188    1.5823470   0
    0  181.6563543  309.6468582   66.3849205  -0.5000   0.5000   0.5000   -1.5822912    1.5811188    1.5823470   0
    0  183.4249404  310.0270013   65.9605274  -0.5000   0.5000   0.5000   -1.5822912    1.5811188    1.5823470   0
    0  185.0671129  309.8222731   66.2420781  -0.5000   0.5000   0.5000   -1.5822912    1.5811188    1.5823470   0
    0  186.7832446  310.5094073   67.4313916  -0.5000   0.5000   0.5000   -1.5822912    1.5811188    1.5823470   0
    0  189.6561429  312.7229460   69.5834177  -0.5000   0.5000   0.5000   -1.5822912    1.5811188    1.5823470   0
    1  473.2816205  557.9316919  591.6335179  -0.5000   0.5000   0.5000   -1.5822912    1.5811188    1.5823470   0
    1  471.4174221  560.4560814  591.1481125  -0.5000   0.5000   0.5000   -1.5822912    1.5811188    1.5823470   0
    1  471.3105603  562.7980845  590.2816297  -0.5000   0.5000   0.5000   -1.5822912    1.5811188    1.5823470   0
    1  472.1472280  564.7046998  589.4834771  -0.5000   0.5000   0.5000   -1.5822912    1.5811188    1.5823470   0
    1  472.9955673  566.4864802  589.0305402  -0.5000   0.5000   0.5000   -1.5822912    1.5811188    1.5823470   0
    1  473.4278546  569.0165478  588.8443066  -0.5000   0.5000   0.5000   -1.5822912    1.5811188    1.5823470   0
    1  474.6162813  571.2265852  588.7135609  -0.5000   0.5000   0.5000   -1.5822912    1.5811188    1.5823470   0
    1  476.9690613  571.8935845  588.5232984  -0.5000   0.5000   0.5000   -1.5822912    1.5811188    1.5823470   0
    1  479.0055964  571.8884133  588.9385524  -0.5000   0.5000   0.5000   -1.5822912    1.5811188    1.5823470   0
    1  480.3744521  572.2281844  590.2198844  -0.5000   0.5000   0.5000   -1.5822912    1.5811188    1.5823470   0
    1  481.2137006  573.2675347  591.7906941  -0.5000   0.5000   0.5000   -1.5822912    1.5811188    1.5823470   0
    1  481.5385079  574.2223831  593.5526331  -0.5000   0.5000   0.5000   -1.5822912    1.5811188    1.5823470   0
    1  481.1870221  573.9827368  594.8795860  -0.5000   0.5000   0.5000   -1.5822912    1.5811188    1.5823470   0
    1  479.9030992  573.4434503  594.2414562  -0.5000   0.5000   0.5000   -1.5822912    1.5811188    1.5823470   0
    1  478.2631654  574.0868837  592.1386849  -0.5000   0.5000   0.5000   -1.5822912    1.5811188    1.5823470   0
    1  477.4435923  575.1336583  590.0320051  -0.5000   0.5000   0.5000   -1.5822912    1.5811188    1.5823470   0
    1  477.4583775  576.1625033  588.4015978  -0.5000   0.5000   0.5000   -1.5822912    1.5811188    1.5823470   0
    1  477.5591146  578.3230018  587.6836818  -0.5000   0.5000   0.5000   -1.5822912    1.5811188    1.5823470   0
    1  478.0403884  581.0244303  587.5124118  -0.5000   0.5000   0.5000   -1.5822912    1.5811188    1.5823470   0
    1  478.9238720  583.1759500  586.9973918  -0.5000   0.5000   0.5000   -1.5822912    1.5811188    1.5823470   0
    1  479.9508612  584.7847697  586.2531292  -0.5000   0.5000   0.5000   -1.5822912    1.5811188    1.5823470   0
    1  481.3987550  585.9800587  586.5945244  -0.5000   0.5000   0.5000   -1.5822912    1.5811188    1.5823470   0
    1  482.8663382  586.5807890  588.2453493  -0.5000   0.5000   0.5000   -1.5822912    1.5811188    1.5823470   0
    1  484.2321168  586.7343260  589.6838054  -0.5000   0.5000   0.5000   -1.5822912    1.5811188    1.5823470   0
    1  485.5690716  587.0294821  590.1287263  -0.5000   0.5000   0.5000   -1.5822912    1.5811188    1.5823470   0
    1  487.1350809  588.4593901  591.0592936  -0.5000   0.5000   0.5000   -1.5822912    1.5811188    1.5823470   0
    1  489.9379356  592.0906017  593.8587446  -0.5000   0.5000   0.5000   -1.5822912    1.5811188    1.5823470   0
    2  589.9916383  621.0185900  625.3137185  -0.5000   0.5000   0.5000   -1.5822912    1.5811188    1.5823470   1
    2  590.8958897  621.1704838  622.9775527  -0.5000   0.5000   0.5000   -1.5822912    1.5811188    1.5823470   1
    2  592.3162423  621.2905068  622.2586028  -0.5000   0.5000   0.5000   -1.5822912    1.5811188    1.5823470   1
    2  593.5492864  621.9463132  623.0545054  -0.5000   0.5000   0.5000   -1.5822912    1.5811188    1.5823470   1
    2  594.6914377  623.0803304  624.4866842  -0.5000   0.5000   0.5000   -1.5822912    1.5811188    1.5823470   1
    2  596.5795761  623.9994331  625.8686803  -0.5000   0.5000   0.5000   -1.5822912    1.5811188    1.5823470   1
    2  598.4933635  624.5975049  627.2297243  -0.5000   0.5000   0.5000   -1.5822912    1.5811188    1.5823470   1
    2  599.7355409  624.8253744  629.1093528  -0.5000   0.5000   0.5000   -1.5822912    1.5811188    1.5823470   1
    2  600.5079116  624.1486451  631.0891746  -0.5000   0.5000   0.5000   -1.5822912    1.5811188    1.5823470   1
    2  600.9584515  622.6639954  632.4181723  -0.5000   0.5000   0.5000   -1.5822912    1.5811188    1.5823470   1
    2  600.4965681  621.4326961  632.9716499  -0.5000   0.5000   0.5000   -1.5822912    1.5811188    1.5823470   1
    2  599.1085975  620.4928899  633.2558387  -0.5000   0.5000   0.5000   -1.5822912    1.5811188    1.5823470   1
    2  597.0463284  619.7328110  633.1990495  -0.5000   0.5000   0.5000   -1.5822912    1.5811188    1.5823470   1
    2  594.9522320  619.6447281  632.0547554  -0.5000   0.5000   0.5000   -1.5822912    1.5811188    1.5823470   1
    2  593.6238555  619.3990530  630.2924770  -0.5000   0.5000   0.5000   -1.5822912    1.5811188    1.5823470   1
    2  592.4954940  618.9901606  629.0761364  -0.5000   0.5000   0.5000   -1.5822912    1.5811188    1.5823470   1
    2  591.6694384  619.5585022  627.9364603  -0.5000   0.5000   0.5000   -1.5822912    1.5811188    1.5823470   1
    2  590.8665490  620.8044287  627.0546809  -0.5000   0.5000   0.5000   -1.5822912    1.5811188    1.5823470   1
    2  589.0041048  621.7974924  627.4596286  -0.5000   0.5000   0.5000   -1.5822912    1.5811188    1.5823470   1
    2  588.2369006  621.8298415  627.6882064  -0.5000   0.5000   0.5000   -1.5822912    1.5811188    1.5823470   1
    2  589.9916381  621.0185901  625.3137187  -0.5000   0.5000   0.5000   -1.5822912    1.5811188    1.5823470   1
    3  501.7359405  616.3591952  596.9333357   0.5000  -0.5000  -0.5000    1.5822912   -1.5811188   -1.5823470   0
    3  503.1628908  620.2396478  598.0000163   0.5000  -0.5000  -0.5000    1.5822912   -1.5811188   -1.5823470   0
    3  503.8851426  622.4970729  597.9150508   0.5000  -0.5000  -0.5000    1.5822912   -1.5811188   -1.5823470   0
    3  504.2440619  624.6583051  597.6375602   0.5000  -0.5000  -0.5000    1.5822912   -1.5811188   -1.5823470   0
    3  504.1954558  626.4493337  596.1549179   0.5000  -0.5000  -0.5000    1.5822912   -1.5811188   -1.5823470   0
    3  503.6779224  626.4897883  593.3904222   0.5000  -0.5000  -0.5000    1.5822912   -1.5811188   -1.5823470   0
    3  502.9606307  625.5883281  590.9386429   0.5000  -0.5000  -0.5000    1.5822912   -1.5811188   -1.5823470   0
    3  501.7407953  625.0670829  588.9910004   0.5000  -0.5000  -0.5000    1.5822912   -1.5811188   -1.5823470   0
    3  500.2157474  624.1416534  587.9751620   0.5000  -0.5000  -0.5000    1.5822912   -1.5811188   -1.5823470   0
    3  499.1138230  622.1577266  587.7448563   0.5000  -0.5000  -0.5000    1.5822912   -1.5811188   -1.5823470   0
    3  497.7938606  620.1652683  587.4492691   0.5000  -0.5000  -0.5000    1.5822912   -1.5811188   -1.5823470   0
    3  496.4297237  618.0995094  587.4532920   0.5000  -0.5000  -0.5000    1.5822912   -1.5811188   -1.5823470   0
    3  496.4990021  616.0881344  588.2060763   0.5000  -0.5000  -0.5000    1.5822912   -1.5811188   -1.5823470   0
    3  497.7839259  614.6960201  589.6481820   0.5000  -0.5000  -0.5000    1.5822912   -1.5811188   -1.5823470   0
    3  499.1195267  613.5817975  591.3149042   0.5000  -0.5000  -0.5000    1.5822912   -1.5811188   -1.5823470   0
    3  499.7661854  613.3609006  592.5525063   0.5000  -0.5000  -0.5000    1.5822912   -1.5811188   -1.5823470   0
    3  500.1519412  614.5061671  594.0790801   0.5000  -0.5000  -0.5000    1.5822912   -1.5811188   -1.5823470   0
    3  501.7359405  616.3591952  596.9333357   0.5000  -0.5000  -0.5000    1.5822912   -1.5811188   -1.5823470   0
    4  474.3981071  557.6405357  484.8887143   0.5000  -0.5000  -0.5000    1.5822912   -1.5811188   -1.5823470   0
    4  474.0238513  553.6809350  483.3282844   0.5000  -0.5000  -0.5000    1.5822912   -1.5811188   -1.5823470   0
    4  472.9789352  551.5942686  483.4587112   0.5000  -0.5000  -0.5000    1.5822912   -1.5811188   -1.5823470   0
    4  471.3570517  550.3080359  483.9651719   0.5000  -0.5000  -0.5000    1.5822912   -1.5811188   -1.5823470   0
    4  469.7862469  548.7439406  484.0485902   0.5000  -0.5000  -0.5000    1.5822912   -1.5811188   -1.5823470   0
    4  468.1485418  547.1592920  483.9884145   0.5000  -0.5000  -0.5000    1.5822912   -1.5811188   -1.5823470   0
    4  466.7222760  545.1497910  483.5840087   0.5000  -0.5000  -0.5000    1.5822912   -1.5811188   -1.5823470   0
    4  465.3049570  543.2758584  482.7578729   0.5000  -0.5000  -0.5000    1.5822912   -1.5811188   -1.5823470   0
    4  463.5669569  541.8425791  481.7820470   0.5000  -0.5000  -0.5000    1.5822912   -1.5811188   -1.5823470   0
    4  462.0803776  540.0498775  481.4997520   0.5000  -0.5000  -0.5000    1.5822912   -1.5811188   -1.5823470   0
    4  461.4119264  537.7161196  482.5195275   0.5000  -0.5000  -0.5000    1.5822912   -1.5811188   -1.5823470   0
    4  461.1175298  535.5114641  483.9333440   0.5000  -0.5000  -0.5000    1.5822912   -1.5811188   -1.5823470   0
    4  460.5677543  534.1826969  485.1427396   0.5000  -0.5000  -0.5000    1.5822912   -1.5811188   -1.5823470   0
    4  460.0439980  533.1783042  486.2326447   0.5000  -0.5000  -0.5000    1.5822912   -1.5811188   -1.5823470   0
    4  459.6418912  531.8649045  487.2413722   0.5000  -0.5000  -0.5000    1.5822912   -1.5811188   -1.5823470   0
    4  458.7469499  530.9402573  489.1211098   0.5000  -0.5000  -0.5000    1.5822912   -1.5811188   -1.5823470   0
    4  457.9975801  530.6566471  491.1058437   0.5000  -0.5000  -0.5000    1.5822912   -1.5811188   -1.5823470   0
    4  458.6781107  530.1516234  491.8840258   0.5000  -0.5000  -0.5000    1.5822912   -1.5811188   -1.5823470   0
    4  460.4481186  529.7784833  492.6917232   0.5000  -0.5000  -0.5000    1.5822912   -1.5811188   -1.5823470   0
    4  462.3670187  530.7672129  493.5530159   0.5000  -0.5000  -0.5000    1.5822912   -1.5811188   -1.5823470   0
    4  463.7342260  532.6428150  493.5024545   0.5000  -0.5000  -0.5000    1.5822912   -1.5811188   -1.5823470   0
    4  464.5204936  534.6496831  492.7809926   0.5000  -0.5000  -0.5000    1.5822912   -1.5811188   -1.5823470   0
    4  465.1049683  536.9470318  492.0479219   0.5000  -0.5000  -0.5000    1.5822912   -1.5811188   -1.5823470   0
    4  465.5204026  539.0436133  491.2649025   0.5000  -0.5000  -0.5000    1.5822912   -1.5811188   -1.5823470   0
    4  466.4036926  540.7229131  490.2126668   0.5000  -0.5000  -0.5000    1.5822912   -1.5811188   -1.5823470   0
    4  468.4759011  542.0738692  489.7856964   0.5000  -0.5000  -0.5000    1.5822912   -1.5811188   -1.5823470   0
    4  470.4893191  543.0422601  490.6510197   0.5000  -0.5000  -0.5000    1.5822912   -1.5811188   -1.5823470   0
    4  471.9097987  543.9455870  491.7361784   0.5000  -0.5000  -0.5000    1.5822912   -1.5811188   -1.5823470   0
    4  473.3658012  545.3746908  491.8559242   0.5000  -0.5000  -0.5000    1.5822912   -1.5811188   -1.5823470   0
    4  474.5322052  547.0768491  491.3089151   0.5000  -0.5000  -0.5000    1.5822912   -1.5811188   -1.5823470   0
    4  475.3893159  548.3656648  490.3444629   0.5000  -0.5000  -0.5000    1.5822912   -1.5811188   -1.5823470   0
    4  475.8364950  549.8721767  489.2540880   0.5000  -0.5000  -0.5000    1.5822912   -1.5811188   -1.5823470   0
    4  475.5855463  551.7733897  488.1873003   0.5000  -0.5000  -0.5000    1.5822912   -1.5811188   -1.5823470   0
    4  475.2945853  553.3142501  487.0765671   0.5000  -0.5000  -0.5000    1.5822912   -1.5811188   -1.5823470   0
    4  476.0154292  554.2737527  486.1375522   0.5000  -0.5000  -0.5000    1.5822912   -1.5811188   -1.5823470   0
    4  476.3715213  555.4653858  485.3463857   0.5000  -0.5000  -0.5000    1.5822912   -1.5811188   -1.5823470   0
    4  474.3981071  557.6405357  484.8887143   0.5000  -0.5000  -0.5000    1.5822912   -1.5811188   -1.5823470   0
    5  606.9364213  231.3848657  158.5715602  -0.5000   0.5000  -0.5000   -1.5825282    1.5836007   -1.5824180   0
    5  607.6146777  231.7090572  155.5528170  -0.5000   0.5000  -0.5000   -1.5825282    1.5836007   -1.5824180   0
    5  607.6883508  232.0461205  152.5414547  -0.5000   0.5000  -0.5000   -1.5825282    1.5836007   -1.5824180   0
    5  607.8406822  232.7008528  150.0232485  -0.5000   0.5000  -0.5000   -1.5825282    1.5836007   -1.5824180   0
    5  607.5935573  234.1741755  148.5260804  -0.5000   0.5000  -0.5000   -1.5825282    1.5836007   -1.5824180   0
    5  606.6749558  235.6612212  147.0100687  -0.5000   0.5000  -0.5000   -1.5825282    1.5836007   -1.5824180   0
    5  606.4417588  237.0950466  145.5452595  -0.5000   0.5000  -0.5000   -1.5825282    1.5836007   -1.5824180   0
    5  606.6212687  239.4511025  144.8743190  -0.5000   0.5000  -0.5000   -1.5825282    1.5836007   -1.5824180   0
    5  606.5309751  241.6429920  143.8143144  -0.5000   0.5000  -0.5000   -1.5825282    1.5836007   -1.5824180   0
    5  606.4777628  243.4272162  141.9990583  -0.5000   0.5000  -0.5000   -1.5825282    1.5836007   -1.5824180   0
    5  606.0730985  245.8596673  140.6487126  -0.5000   0.5000  -0.5000   -1.5825282    1.5836007   -1.5824180   0
    5  605.3156739  248.5064029  139.9925956  -0.5000   0.5000  -0.5000   -1.5825282    1.5836007   -1.5824180   0
    5  604.8316487  251.0499809  139.5957643  -0.5000   0.5000  -0.5000   -1.5825282    1.5836007   -1.5824180   0
    5  604.1751369  253.4662324  138.7867292  -0.5000   0.5000  -0.5000   -1.5825282    1.5836007   -1.5824180   0
    5  603.1416333  255.5845921  137.5064386  -0.5000   0.5000  -0.5000   -1.5825282    1.5836007   -1.5824180   0
    5  602.4848012  257.1615219  136.4041000  -0.5000   0.5000  -0.5000   -1.5825282    1.5836007   -1.5824180   0
    5  602.5747754  258.7366448  135.3015982  -0.5000   0.5000  -0.5000   -1.5825282    1.5836007   -1.5824180   0
    5  603.4017333  261.4876636  134.1563303  -0.5000   0.5000  -0.5000   -1.5825282    1.5836007   -1.5824180   0
    6  591.6821068  246.3938311   79.0950228  -0.5000   0.5000   0.5000   -1.5822912    1.5811188    1.5823470   1
    6  592.8567570  246.1795434   79.0769087  -0.5000   0.5000   0.5000   -1.5822912    1.5811188    1.5823470   1
    6  594.3022733  246.9524642   79.4684666  -0.5000   0.5000   0.5000   -1.5822912    1.5811188    1.5823470   1
    6  595.8224954  247.9399254   80.5607287  -0.5000   0.5000   0.5000   -1.5822912    1.5811188    1.5823470   1
    6  597.7831963  248.5774241   80.5492455  -0.5000   0.5000   0.5000   -1.5822912    1.5811188    1.5823470   1
    6  600.3160223  248.3606926   79.4906544  -0.5000   0.5000   0.5000   -1.5822912    1.5811188    1.5823470   1
    6  603.0765401  247.4248214   79.0333661  -0.5000   0.5000   0.5000   -1.5822912    1.5811188    1.5823470   1
    6  605.0730276  246.6871613   79.0955611  -0.5000   0.5000   0.5000   -1.5822912    1.5811188    1.5823470   1
    6  605.8939465  246.5406894   79.8536765  -0.5000   0.5000   0.5000   -1.5822912    1.5811188    1.5823470   1
    6  605.7274571  246.0283689   81.2446236  -0.5000   0.5000   0.5000   -1.5822912    1.5811188    1.5823470   1
    6  604.5651080  244.4724913   81.8169453  -0.5000   0.5000   0.5000   -1.5822912    1.5811188    1.5823470   1
    6  602.7283135  243.1994864   82.3318796  -0.5000   0.5000   0.5000   -1.5822912    1.5811188    1.5823470   1
    6  601.2238267  242.6034536   83.7264365  -0.5000   0.5000   0.5000   -1.5822912    1.5811188    1.5823470   1
    6  600.2274313  241.5941819   85.2203652  -0.5000   0.5000   0.5000   -1.5822912    1.5811188    1.5823470   1
    6  599.4363494  240.1101059   86.4982079  -0.5000   0.5000   0.5000   -1.5822912    1.5811188    1.5823470   1
    6  598.7831859  238.9871209   87.7193353  -0.5000   0.5000   0.5000   -1.5822912    1.5811188    1.5823470   1
    6  597.6298822  238.0596961   88.5732527  -0.5000   0.5000   0.5000   -1.5822912    1.5811188    1.5823470   1
    6  596.0526811  236.9100903   88.7582231  -0.5000   0.5000   0.5000   -1.5822912    1.5811188    1.5823470   1
    6  594.1541440  236.0122028   88.5662110  -0.5000   0.5000   0.5000   -1.5822912    1.5811188    1.5823470   1
    6  591.5831130  235.4013237   88.1513300  -0.5000   0.5000   0.5000   -1.5822912    1.5811188    1.5823470   1
    6  589.5530088  235.1046494   87.3772733  -0.5000   0.5000   0.5000   -1.5822912    1.5811188    1.5823470   1
    6  588.8637302  235.7946792   85.8950744  -0.5000   0.5000   0.5000   -1.5822912    1.5811188    1.5823470   1
    6  588.9318817  237.2723075   83.9803317  -0.5000   0.5000   0.5000   -1.5822912    1.5811188    1.5823470   1
    6  589.5226608  239.0362676   82.8085172  -0.5000   0.5000   0.5000   -1.5822912    1.5811188    1.5823470   1
    6  590.1983966  241.1642729   82.3950245  -0.5000   0.5000   0.5000   -1.5822912    1.5811188    1.5823470   1
    6  590.7088838  243.0453970   81.5563310  -0.5000   0.5000   0.5000   -1.5822912    1.5811188    1.5823470   1
    6  591.5983413  244.1993409   80.5645386  -0.5000   0.5000   0.5000   -1.5822912    1.5811188    1.5823470   1
    6  591.9880460  245.1763794   79.9053592  -0.5000   0.5000   0.5000   -1.5822912    1.5811188    1.5823470   1
    6  591.6821067  246.3938312   79.0950228  -0.5000   0.5000   0.5000   -1.5822912    1.5811188    1.5823470   1
    7  641.5292121  109.7462379  616.3917470   0.5000  -0.5000   0.5000    1.5825282   -1.5836007    1.5824180   0
    7  645.2101924  110.5369524  616.6423995   0.5000  -0.5000   0.5000    1.5825282   -1.5836007    1.5824180   0
    7  647.5118690  109.8865970  617.1166214   0.5000  -0.5000   0.5000    1.5825282   -1.5836007    1.5824180   0
    7  649.0495097  108.1692126  617.6261964   0.5000  -0.5000   0.5000    1.5825282   -1.5836007    1.5824180   0
    7  650.7975886  106.1897296  618.7128275   0.5000  -0.5000   0.5000    1.5825282   -1.5836007    1.5824180   0
    7  652.7261674  104.7685832  619.6663894   0.5000  -0.5000   0.5000    1.5825282   -1.5836007    1.5824180   0
    7  654.1388164  103.6198952  619.8934405   0.5000  -0.5000   0.5000    1.5825282   -1.5836007    1.5824180   0
    7  655.4353549  101.8770953  620.4362071   0.5000  -0.5000   0.5000    1.5825282   -1.5836007    1.5824180   0
    7  657.3142941  100.1224237  621.1976621   0.5000  -0.5000   0.5000    1.5825282   -1.5836007    1.5824180   0
    7  659.0009476   98.8189382  621.4784332   0.5000  -0.5000   0.5000    1.5825282   -1.5836007    1.5824180   0
    7  660.2943020   97.2815714  622.0910453   0.5000  -0.5000   0.5000    1.5825282   -1.5836007    1.5824180   0
    7  661.9557245   95.3758721  623.3484218   0.5000  -0.5000   0.5000    1.5825282   -1.5836007    1.5824180   0
    7  663.8248546   93.3526933  624.4631023   0.5000  -0.5000   0.5000    1.5825282   -1.5836007    1.5824180   0
    7  665.3800433   91.4442862  625.3197997   0.5000  -0.5000   0.5000    1.5825282   -1.5836007    1.5824180   0
    7  666.6147313   89.6935694  625.8930468   0.5000  -0.5000   0.5000    1.5825282   -1.5836007    1.5824180   0
    7  667.7767415   87.8848123  626.4301564   0.5000  -0.5000   0.5000    1.5825282   -1.5836007    1.5824180   0
    7  668.9832024   86.0385426  627.6491750   0.5000  -0.5000   0.5000    1.5825282   -1.5836007    1.5824180   0
    7  670.2625809   84.0730565  628.7619388   0.5000  -0.5000   0.5000    1.5825282   -1.5836007    1.5824180   0
    7  671.9813057   82.2840463  629.2969061   0.5000  -0.5000   0.5000    1.5825282   -1.5836007    1.5824180   0
    7  673.9813378   80.8507790  630.3098091   0.5000  -0.5000   0.5000    1.5825282   -1.5836007    1.5824180   0
    7  675.4674223   79.2634351  631.2951187   0.5000  -0.5000   0.5000    1.5825282   -1.5836007    1.5824180   0
    7  676.5386798   77.4607735  631.8703487   0.5000  -0.5000   0.5000    1.5825282   -1.5836007    1.5824180   0
    7  677.8204569   75.8777746  633.0676824   0.5000  -0.5000   0.5000    1.5825282   -1.5836007    1.5824180   0
    7  679.3577976   74.4797129  634.3987241   0.5000  -0.5000   0.5000    1.5825282   -1.5836007    1.5824180   0
    7  681.2168333   72.9202667  635.1370833   0.5000  -0.5000   0.5000    1.5825282   -1.5836007    1.5824180   0
    8  245.0267025  249.1862165  634.5608464   0.5000  -0.5000   0.5000    1.5825282   -1.5836007    1.5824180   0
    8  246.3527240  248.1588178  630.2624556   0.5000  -0.5000   0.5000    1.5825282   -1.5836007    1.5824180   0
    8  246.8696442  246.7702048  628.3852252   0.5000  -0.5000   0.5000    1.5825282   -1.5836007    1.5824180   0
    8  246.4904432  245.0653738  627.5903897   0.5000  -0.5000   0.5000    1.5825282   -1.5836007    1.5824180   0
    8  245.4370359  243.5154593  627.2917692   0.5000  -0.5000   0.5000    1.5825282   -1.5836007    1.5824180   0
    8  244.1821115  242.1407512  628.3326420   0.5000  -0.5000   0.5000    1.5825282   -1.5836007    1.5824180   0
    8  242.8593154  241.1237753  630.4834702   0.5000  -0.5000   0.5000    1.5825282   -1.5836007    1.5824180   0
    8  241.8439284  240.9304947  632.9607607   0.5000  -0.5000   0.5000    1.5825282   -1.5836007    1.5824180   0
    8  241.7501843  241.9425798  635.0667112   0.5000  -0.5000   0.5000    1.5825282   -1.5836007    1.5824180   0
    8  242.3502409  243.5963742  635.9994222   0.5000  -0.5000   0.5000    1.5825282   -1.5836007    1.5824180   0
    8  243.4397500  245.6729483  635.6584066   0.5000  -0.5000   0.5000    1.5825282   -1.5836007    1.5824180   0
    8  245.0267025  249.1862165  634.5608464   0.5000  -0.5000   0.5000    1.5825282   -1.5836007    1.5824180   0
    9  169.9732870   77.9513043  308.8401130   0.5000  -0.5000  -0.5000    1.5822912   -1.5811188   -1.5823470   1
    9  169.9716259   80.1336749  310.0040641   0.5000  -0.5000  -0.5000    1.5822912   -1.5811188   -1.5823470   1
    9  171.1543196   82.2326942  310.8439846   0.5000  -0.5000  -0.5000    1.5822912   -1.5811188   -1.5823470   1
    9  172.5275820   84.2221261  311.4534872   0.5000  -0.5000  -0.5000    1.5822912   -1.5811188   -1.5823470   1
    9  173.0600961   86.4697374  311.4482995   0.5000  -0.5000  -0.5000    1.5822912   -1.5811188   -1.5823470   1
    9  172.8451690   88.6417711  310.4730018   0.5000  -0.5000  -0.5000    1.5822912   -1.5811188   -1.5823470   1
    9  172.5460684   90.6447147  309.1733995   0.5000  -0.5000  -0.5000    1.5822912   -1.5811188   -1.5823470   1
    9  172.2025391   92.2433848  307.6288835   0.5000  -0.5000  -0.5000    1.5822912   -1.5811188   -1.5823470   1
    9  171.5961294   93.5529565  306.0782708   0.5000  -0.5000  -0.5000    1.5822912   -1.5811188   -1.5823470   1
    9  171.4429705   95.0849567  304.8192207   0.5000  -0.5000  -0.5000    1.5822912   -1.5811188   -1.5823470   1
    9  171.1369585   95.9605839  304.3413117   0.5000  -0.5000  -0.5000    1.5822912   -1.5811188   -1.5823470   1
    9  170.0285273   95.1735286  304.3966778   0.5000  -0.5000  -0.5000    1.5822912   -1.5811188   -1.5823470   1
    9  169.1000535   93.2650930  303.3291958   0.5000  -0.5000  -0.5000    1.5822912   -1.5811188   -1.5823470   1
    9  168.5209806   91.4283212  301.2808417   0.5000  -0.5000  -0.5000    1.5822912   -1.5811188   -1.5823470   1
    9  168.1169932   90.1507542  300.5659579   0.5000  -0.5000  -0.5000    1.5822912   -1.5811188   -1.5823470   1
    9  167.7315648   88.6391824  301.6986027   0.5000  -0.5000  -0.5000    1.5822912   -1.5811188   -1.5823470   1
    9  167.0607417   86.9263995  303.1960342   0.5000  -0.5000  -0.5000    1.5822912   -1.5811188   -1.5823470   1
    9  166.5567378   85.7511870  304.9610862   0.5000  -0.5000  -0.5000    1.5822912   -1.5811188   -1.5823470   1
    9  167.0039747   84.4228339  307.0584986   0.5000  -0.5000  -0.5000    1.5822912   -1.5811188   -1.5823470   1
    9  168.1355445   82.7725507  308.7422811   0.5000  -0.5000  -0.5000    1.5822912   -1.5811188   -1.5823470   1
    9  169.0528405   81.2027679  309.5439721   0.5000  -0.5000  -0.5000    1.5822912   -1.5811188   -1.5823470   1
    9  169.6113627   79.5529850  309.3158774   0.5000  -0.5000  -0.5000    1.5822912   -1.5811188   -1.5823470   1
    9  169.9732870   77.9513043  308.8401132   0.5000  -0.5000  -0.5000    1.5822912   -1.5811188   -1.5823470   1
   10  -89.7268250  231.3848657  158.5715602   0.5000   0.5000   0.5000    1.5824843    1.5812139    1.5824373   0
   10  -88.6439165  229.0626798  159.1687748   0.5000   0.5000   0.5000    1.5824843    1.5812139    1.5824373   0
   10  -86.9866076  227.4412816  158.9649825   0.5000   0.5000   0.5000    1.5824843    1.5812139    1.5824373   0
   10  -85.4720765  225.3911653  159.1132625   0.5000   0.5000   0.5000    1.5824843    1.5812139    1.5824373   0
   10  -84.7634758  223.2884676  159.5205256   0.5000   0.5000   0.5000    1.5824843    1.5812139    1.5824373   0
   10  -84.4668650  221.2493396  159.7892074   0.5000   0.5000   0.5000    1.5824843    1.5812139    1.5824373   0
   10  -84.3003301  219.0830221  160.5867070   0.5000   0.5000   0.5000    1.5824843    1.5812139    1.5824373   0
   10  -84.3355972  217.3824395  162.2196429   0.5000   0.5000   0.5000    1.5824843    1.5812139    1.5824373   0
   10  -84.8417658  216.2192052  164.3970283   0.5000   0.5000   0.5000    1.5824843    1.5812139    1.5824373   0
   10  -85.6867567  215.7642720  167.0176121   0.5000   0.5000   0.5000    1.5824843    1.5812139    1.5824373   0
   10  -85.9525091  215.7656203  169.4402810   0.5000   0.5000   0.5000    1.5824843    1.5812139    1.5824373   0
   10  -85.4378967  215.2153339  171.3279422   0.5000   0.5000   0.5000    1.5824843    1.5812139    1.5824373   0
   10  -85.2814984  214.0067460  173.4321697   0.5000   0.5000   0.5000    1.5824843    1.5812139    1.5824373   0
   10  -85.8614873  213.3553317  175.7343831   0.5000   0.5000   0.5000    1.5824843    1.5812139    1.5824373   0