ITEM: TIMESTEP
0
ITEM: NUMBER OF ATOMS
8601
ITEM: BOX BOUNDS pp pp pp 
0.0 695.592753
0.0 696.938031
0.0 697.977509
ITEM: ATOMS id x y z tbx tby tbz sbx sby sbz loop
    0  664.0449601  682.0791427  701.1674377  -0.5000  -0.5000  -0.5000   -1.5802720   -1.5805731   -1.5826066   1
    0  663.7317130  681.2894824  699.6897459  -0.5000  -0.5000  -0.5000   -1.5802720   -1.5805731   -1.5826066   1
    0  664.3618683  680.4917126  697.7520473  -0.5000  -0.5000  -0.5000   -1.5802720   -1.5805731   -1.5826066   1
    0  665.0454232  680.2413250  694.7859737  -0.5000  -0.5000  -0.5000   -1.5802720   -1.5805731   -1.5826066   1
    0  665.7794123  680.5669527  692.3405083  -0.5000  -0.5000  -0.5000   -1.5802720   -1.5805731   -1.5826066   1
    0  666.3599773  681.3467405  690.2737550  -0.5000  -0.5000  -0.5000   -1.5802720   -1.5805731   -1.5826066   1
    0  665.8385515  682.0411439  687.6305163  -0.5000  -0.5000  -0.5000   -1.5802720   -1.5805731   -1.5826066   1
    0  664.3533895  683.0551039  686.1786817  -0.5000  -0.5000  -0.5000   -1.5802720   -1.5805731   -1.5826066   1
    0  662.4454919  684.3524660  686.1168732  -0.5000  -0.5000  -0.5000   -1.5802720   -1.5805731   -1.5826066   1
    0  660.5274887  685.1461129  686.4985703  -0.5000  -0.5000  -0.5000   -1.5802720   -1.5805731   -1.5826066   1
    0  659.0989456  685.6045645  687.6059173  -0.5000  -0.5000  -0.5000   -1.5802720   -1.5805731   -1.5826066   1
    0  658.3148228  685.4260663  689.7027446  -0.5000  -0.5000  -0.5000   -1.5802720   -1.5805731   -1.5826066   1
    0  658.4859697  684.5182696  692.5570775  -0.5000  -0.5000  -0.5000   -1.5802720   -1.5805731   -1.5826066   1
    0  659.4037276  683.7638038  695.2297663  -0.5000  -0.5000  -0.5000   -1.5802720   -1.5805731   -1.5826066   1
    0  660.3497387  682.9431717  697.3425298  -0.5000  -0.5000  -0.5000   -1.5802720   -1.5805731   -1.5826066   1
    0  661.3213623  681.8013896  699.0117446  -0.5000  -0.5000  -0.5000   -1.5802720   -1.5805731   -1.5826066   1
    0  662.5216014  681.5129950  700.2822666  -0.5000  -0.5000  -0.5000   -1.5802720   -1.5805731   -1.5826066   1
    0  664.0449600  682.0791427  701.1674377  -0.5000  -0.5000  -0.5000   -1.5802720   -1.5805731   -1.5826066   1
    1  559.5908403  162.3337925   18.6167760   0.5000   0.5000   0.5000    1.5802720    1.5805731    1.5826066   1
    1  558.7294773  161.6346900   20.0611406   0.5000   0.5000   0.5000    1.5802720    1.5805731    1.5826066   1
    1  557.8756736  160.7070985   21.8988967   0.5000   0.5000   0.5000    1.5802720    1.5805731    1.5826066   1
    1  556.6438747  160.7699861   23.7562973   0.5000   0.5000   0.5000    1.5802720    1.5805731    1.5826066   1
    1  554.8525425  161.5864410   24.8266774   0.5000   0.5000   0.5000    1.5802720    1.5805731    1.5826066   1
    1  552.7564730  162.5705474   24.8806228   0.5000   0.5000   0.5000    1.5802720    1.5805731    1.5826066   1
    1  551.4693996  164.1586409   24.3512915   0.5000   0.5000   0.5000    1.5802720    1.5805731    1.5826066   1
    1  550.9799649  166.6293940   24.1321130   0.5000   0.5000   0.5000    1.5802720    1.5805731    1.5826066   1
    1  550.4105356  169.1337851   24.2865760   0.5000   0.5000   0.5000    1.5802720    1.5805731    1.5826066   1
    1  550.0387854  171.0515017   23.5497147   0.5000   0.5000   0.5000    1.5802720    1.5805731    1.5826066   1
    1  550.6707460  172.2054588   21.7902831   0.5000   0.5000   0.5000    1.5802720    1.5805731    1.5826066   1
    1  552.1592511  172.4322725   19.9635328   0.5000   0.5000   0.5000    1.5802720    1.5805731    1.5826066   1
    1  553.7435882  171.2841629   19.1430886   0.5000   0.5000   0.5000    1.5802720    1.5805731    1.5826066   1
    1  554.9966453  169.2968293   18.9136534   0.5000   0.5000   0.5000    1.5802720    1.5805731    1.5826066   1
    1  556.2525553  167.9127376   18.2089932   0.5000   0.5000   0.5000    1.5802720    1.5805731    1.5826066   1
    1  557.8346280  166.7938019   17.3842676   0.5000   0.5000   0.5000    1.5802720    1.5805731    1.5826066   1
    1  559.0718534  165.1523156   17.2977459   0.5000   0.5000   0.5000    1.5802720    1.5805731    1.5826066   1
    1  559.5908403  162.3337927   18.6167760   0.5000   0.5000   0.5000    1.5802720    1.5805731    1.5826066   1
    2  435.5430268   53.5163460  618.9882842   0.5000  -0.5000   0.5000    1.5821973   -1.5836637    1.5797146   1
    2  436.0859999   54.2912335  619.8294541   0.5000  -0.5000   0.5000    1.5821973   -1.5836637    1.5797146   1
    2  435.7232567   55.4626372  621.0333604   0.5000  -0.5000   0.5000    1.5821973   -1.5836637    1.5797146   1
    2  435.0102350   57.0998395  621.8213870   0.5000  -0.5000   0.5000    1.5821973   -1.5836637    1.5797146   1
    2  435.4247153   59.0259474  622.3111883   0.5000  -0.5000   0.5000    1.5821973   -1.5836637    1.5797146   1
    2  437.1991148   60.5993878  622.8294984   0.5000  -0.5000   0.5000    1.5821973   -1.5836637    1.5797146   1
    2  439.0367960   62.0512472  623.3249060   0.5000  -0.5000   0.5000    1.5821973   -1.5836637    1.5797146   1
    2  440.2892484   63.7148797  623.2972127   0.5000  -0.5000   0.5000    1.5821973   -1.5836637    1.5797146   1
    2  441.3734885   65.4790447  623.0601911   0.5000  -0.5000   0.5000    1.5821973   -1.5836637    1.5797146   1
    2  442.4555686   67.4423237  623.5836294   0.5000  -0.5000   0.5000    1.5821973   -1.5836637    1.5797146   1
    2  443.3461533   69.4845732  624.8581347   0.5000  -0.5000   0.5000    1.5821973   -1.5836637    1.5797146   1
    2  443.6139335   71.2063166  626.3005805   0.5000  -0.5000   0.5000    1.5821973   -1.5836637    1.5797146   1
    2  443.4709795   72.5756653  627.5622510   0.5000  -0.5000   0.5000    1.5821973   -1.5836637    1.5797146   1
    2  444.4044770   73.4912334  628.4053649   0.5000  -0.5000   0.5000    1.5821973   -1.5836637    1.5797146   1
    2  446.6586720   74.2374867  628.3810919   0.5000  -0.5000   0.5000    1.5821973   -1.5836637    1.5797146   1
    2  449.1661086   75.1083982  627.5479881   0.5000  -0.5000   0.5000    1.5821973   -1.5836637    1.5797146   1
    2  451.7932539   75.8021294  626.8749803   0.5000  -0.5000   0.5000    1.5821973   -1.5836637    1.5797146   1
    2  453.9102258   76.8701130  626.7466015   0.5000  -0.5000   0.5000    1.5821973   -1.5836637    1.5797146   1
    2  455.6653564   78.1565319  626.8837473   0.5000  -0.5000   0.5000    1.5821973   -1.5836637    1.5797146   1
    2  457.8911917   78.8618669  626.8590514   0.5000  -0.5000   0.5000    1.5821973   -1.5836637    1.5797146   1
    2  460.3781729   79.2824286  626.3051381   0.5000  -0.5000   0.5000    1.5821973   -1.5836637    1.5797146   1
    2  462.5669562   79.4437624  625.2062458   0.5000  -0.5000   0.5000    1.5821973   -1.5836637    1.5797146   1
    2  464.1219623   79.1706391  624.2122894   0.5000  -0.5000   0.5000    1.5821973   -1.5836637    1.5797146   1
    2  465.7277842   78.7335169  623.7974174   0.5000  -0.5000   0.5000    1.5821973   -1.5836637    1.5797146   1
    2  467.5579881   77.7492549  623.2577129   0.5000  -0.5000   0.5000    1.5821973   -1.5836637    1.5797146   1
    2  468.5644489   75.7619805  622.2752358   0.5000  -0.5000   0.5000    1.5821973   -1.5836637    1.5797146   1
    2  468.3200828   73.4896382  621.2221459   0.5000  -0.5000   0.5000    1.5821973   -1.5836637    1.5797146   1
    2  468.2612931   71.5010451  620.4276731   0.5000  -0.5000   0.5000    1.5821973   -1.5836637    1.5797146   1
    2  469.4476415   69.7073747  619.7718151   0.5000  -0.5000   0.5000    1.5821973   -1.5836637    1.5797146   1
    2  470.8265153   67.8409395  618.8213870   0.5000  -0.5000   0.5000    1.5821973   -1.5836637    1.5797146   1
    2  471.2909206   65.6525173  617.8785500   0.5000  -0.5000   0.5000    1.5821973   -1.5836637    1.5797146   1
    2  471.0536146   63.5405455  617.0845549   0.5000  -0.5000   0.5000    1.5821973   -1.5836637    1.5797146   1
    2  471.0304797   62.0246656  615.9427299   0.5000  -0.5000   0.5000    1.5821973   -1.5836637    1.5797146   1
    2  471.1089249   60.7444616  614.6567194   0.5000  -0.5000   0.5000    1.5821973   -1.5836637    1.5797146   1
    2  470.7445873   58.6243983  613.8638047   0.5000  -0.5000   0.5000    1.5821973   -1.5836637    1.5797146   1
    2  470.2964565   55.9444884  613.3259375   0.5000  -0.5000   0.5000    1.5821973   -1.5836637    1.5797146   1
    2  469.5788971   54.0066437  612.5932994   0.5000  -0.5000   0.5000    1.5821973   -1.5836637    1.5797146   1
    2  468.5127088   52.6567840  611.7050017   0.5000  -0.5000   0.5000    1.5821973   -1.5836637    1.5797146   1
    2  467.4195235   50.9851013  610.6569013   0.5000  -0.5000   0.5000    1.5821973   -1.5836637    1.5797146   1
    2  466.1053195   49.0454331  609.3550017   0.5000  -0.5000   0.5000    1.5821973   -1.5836637    1.5797146   1
    2  464.6615309   47.5910107  608.5558185   0.5000  -0.5000   0.5000    1.5821973   -1.5836637    1.5797146   1
    2  463.4206874   46.3220690  608.6011006   0.5000  -0.5000   0.5000    1.5821973   -1.5836637    1.5797146   1
    2  462.0541746   44.9858435  608.4851547   0.5000  -0.5000   0.5000    1.5821973   -1.5836637    1.5797146   1
    2  459.8563562   44.3295556  608.3288839   0.5000  -0.5000   0.5000    1.5821973   -1.5836637    1.5797146   1
    2  457.6130934   43.7961967  608.7737023   0.5000  -0.5000   0.5000    1.5821973   -1.5836637    1.5797146   1
    2  455.6877939   42.9516919  609.5318224   0.5000  -0.5000   0.5000    1.5821973   -1.5836637    1.5797146   1
    2  453.3098192   42.4426658  609.9203820   0.5000  -0.5000   0.5000    1.5821973   -1.5836637    1.5797146   1
    2  450.7600248   41.9953164  609.5679831   0.5000  -0.5000   0.5000    1.5821973   -1.5836637    1.5797146   1
    2  448.3339028   41.7481564  609.2621893   0.5000  -0.5000   0.5000    1.5821973   -1.5836637    1.5797146   1
    2  446.0509375   42.1796829  609.5490425   0.5000  -0.5000   0.5000    1.5821973   -1.5836637    1.5797146   1
    2  443.7689509   42.3425800  610.0654277   0.5000  -0.5000   0.5000    1.5821973   -1.5836637    1.5797146   1
    2  441.4795096   41.9891195  610.7379395   0.5000  -0.5000   0.5000    1.5821973   -1.5836637    1.5797146   1
    2  439.6037744   42.4045333  611.5210875   0.5000  -0.5000   0.5000    1.5821973   -1.5836637    1.5797146   1
    2  437.8179053   43.4101252  612.3311267   0.5000  -0.5000   0.5000    1.5821973   -1.5836637    1.5797146   1
    2  436.2705430   44.3118575  613.3271711   0.5000  -0.5000   0.5000    1.5821973   -1.5836637    1.5797146   1
    2  435.0512356   45.4063813  614.4765842   0.5000  -0.5000   0.5000    1.5821973   -1.5836637    1.5797146   1
    2  433.5863234   46.7277640  615.6811804   0.5000  -0.5000   0.5000    1.5821973   -1.5836637    1.5797146   1
    2  432.8757339   48.4340302  616.7620141   0.5000  -0.5000   0.5000    1.5821973   -1.5836637    1.5797146   1
    2  433.1606752   50.7042409  617.4715323   0.5000  -0.5000   0.5000    1.5821973   -1.5836637    1.5797146   1
    2  433.4340204   52.7763015  618.1858120   0.5000  -0.5000   0.5000    1.5821973   -1.5836637    1.5797146   1
    2  433.9161359   53.5069119  618.7000285   0.5000  -0.5000   0.5000    1.5821973   -1.5836637    1.5797146   1
    2  435.5430268   53.5163460  618.9882842   0.5000  -0.5000   0.5000    1.5821973   -1.5836637    1.5797146   1
    3  390.9950540  661.6506384  676.8227885  -0.5000   0.5000   0.5000   -1.5839132    1.5800180    1.5844909   1
    3  389.7413682  661.4765859  674.9328327  -0.5000   0.5000   0.5000   -1.5839132    1.5800180    1.5844909   1
    3  388.1067335  660.8646351  673.1282163  -0.5000   0.5000   0.5000   -1.5839132    1.5800180    1.5844909   1
    3  386.3294574  660.5980654  671.3239370  -0.5000   0.5000   0.5000   -1.5839132    1.5800180    1.5844909   1
    3  385.1816053  660.5972233  668.9010814  -0.5000   0.5000   0.5000   -1.5839132    1.5800180    1.5844909   1
    3  384.5649629  661.1789863  666.7052969  -0.5000   0.5000   0.5000   -1.5839132    1.5800180    1.5844909   1
    3  384.3425502  662.1951236  664.8085527  -0.5000   0.5000   0.5000   -1.5839132    1.5800180    1.5844909   1
    3  384.7177791  663.1331429  662.8622809  -0.5000   0.5000   0.5000   -1.5839132    1.5800180    1.5844909   1
    3  385.1223624  664.3455049  661.0457707  -0.5000   0.5000   0.5000   -1.5839132    1.5800180    1.5844909   1
    3  385.3018194  666.0831694  659.3647569  -0.5000   0.5000   0.5000   -1.5839132    1.5800180    1.5844909   1
    3  385.8017341  667.9369903  658.3806521  -0.5000   0.5000   0.5000   -1.5839132    1.5800180    1.5844909   1
    3  386.5103329  670.0650017  658.0101248  -0.5000   0.5000   0.5000   -1.5839132    1.5800180    1.5844909   1
    3  387.1862058  672.1333059  657.4154125  -0.5000   0.5000   0.5000   -1.5839132    1.5800180    1.5844909   1
    3  388.6262287  673.3411355  657.3688988  -0.5000   0.5000   0.5000   -1.5839132    1.5800180    1.5844909   1
    3  390.3260161  673.6626970  659.0574810  -0.5000   0.5000   0.5000   -1.5839132    1.5800180    1.5844909   1
    3  390.7988132  673.0608418  661.4053921  -0.5000   0.5000   0.5000   -1.5839132    1.5800180    1.5844909   1
    3  390.5778948  671.6152711  663.0783156  -0.5000   0.5000   0.5000   -1.5839132    1.5800180    1.5844909   1
    3  390.8543792  670.4288440  664.8207833  -0.5000   0.5000   0.5000   -1.5839132    1.5800180    1.5844909   1
    3  391.4588478  669.9794690  667.1025074  -0.5000   0.5000   0.5000   -1.5839132    1.5800180    1.5844909   1
    3  391.9721599  669.6629765  669.4294613  -0.5000   0.5000   0.5000   -1.5839132    1.5800180    1.5844909   1
    3  392.8220396  669.3693885  671.3498071  -0.5000   0.5000   0.5000   -1.5839132    1.5800180    1.5844909   1
    3  394.0477813  669.0030733  673.0481743  -0.5000   0.5000   0.5000   -1.5839132    1.5800180    1.5844909   1
    3  394.5680782  667.8892026  674.5617316  -0.5000   0.5000   0.5000   -1.5839132    1.5800180    1.5844909   1
    3  393.7524010  666.4715734  675.8568068  -0.5000   0.5000   0.5000   -1.5839132    1.5800180    1.5844909   1
    3  392.8516177  664.9126617  677.0956172  -0.5000   0.5000   0.5000   -1.5839132    1.5800180    1.5844909   1
    3  392.3975615  663.2942473  677.6360793  -0.5000   0.5000   0.5000   -1.5839132    1.5800180    1.5844909   1
    3  390.9950540  661.6506382  676.8227886  -0.5000   0.5000   0.5000   -1.5839132    1.5800180    1.5844909   1
    4  623.8736278  652.3011222  631.4280722  -0.5000  -0.5000  -0.5000   -1.5802720   -1.5805731   -1.5826066   0
    4  624.3995619  655.8899918  628.3809829  -0.5000  -0.5000  -0.5000   -1.5802720   -1.5805731   -1.5826066   0
    4  623.1548621  657.4536742  626.2873940  -0.5000  -0.5000  -0.5000   -1.5802720   -1.5805731   -1.5826066   0
    4  621.5409467  658.3218240  624.8690042  -0.5000  -0.5000  -0.5000   -1.5802720   -1.5805731   -1.5826066   0
    4  620.6629315  660.0358386  624.0388662  -0.5000  -0.5000  -0.5000   -1.5802720   -1.5805731   -1.5826066   0
    4  620.0925401  662.1361596  623.5266572  -0.5000  -0.5000  -0.5000   -1.5802720   -1.5805731   -1.5826066   0
    4  619.2761074  664.1598477  622.7207900  -0.5000  -0.5000  -0.5000   -1.5802720   -1.5805731   -1.5826066   0
    4  618.9237152  666.5966022  621.6796862  -0.5000  -0.5000  -0.5000   -1.5802720   -1.5805731   -1.5826066   0
    4  619.6255602  668.7937867  620.4765785  -0.5000  -0.5000  -0.5000   -1.5802720   -1.5805731   -1.5826066   0
    4  621.2834392  670.0412346  619.7167557  -0.5000  -0.5000  -0.5000   -1.5802720   -1.5805731   -1.5826066   0
    4  623.2866182  670.1245716  619.2908991  -0.5000  -0.5000  -0.5000   -1.5802720   -1.5805731   -1.5826066   0
    4  625.1062289  669.3258712  618.4997967  -0.5000  -0.5000  -0.5000   -1.5802720   -1.5805731   -1.5826066   0
    4  627.1182547  668.5056881  618.4771225  -0.5000  -0.5000  -0.5000   -1.5802720   -1.5805731   -1.5826066   0
    4  629.1517701  667.5987418  619.1316303  -0.5000  -0.5000  -0.5000   -1.5802720   -1.5805731   -1.5826066   0
    4  631.0450304  666.5793553  619.4066507  -0.5000  -0.5000  -0.5000   -1.5802720   -1.5805731   -1.5826066   0
    4  632.8944219  665.5897683  620.4287428  -0.5000  -0.5000  -0.5000   -1.5802720   -1.5805731   -1.5826066   0
    4  633.7738575  664.4295849  622.4203618  -0.5000  -0.5000  -0.5000   -1.5802720   -1.5805731   -1.5826066   0
    4  632.9783998  663.2308999  623.9587620  -0.5000  -0.5000  -0.5000   -1.5802720   -1.5805731   -1.5826066   0
    4  631.7080877  662.2657998  624.9446130  -0.5000  -0.5000  -0.5000   -1.5802720   -1.5805731   -1.5826066   0
    4  630.8446271  661.1492909  626.3107367  -0.5000  -0.5000  -0.5000   -1.5802720   -1.5805731   -1.5826066   0
    4  630.9484428  659.5229117  628.0820607  -0.5000  -0.5000  -0.5000   -1.5802720   -1.5805731   -1.5826066   0
    4  632.9143636  657.8254546  629.8050682  -0.5000  -0.5000  -0.5000   -1.5802720   -1.5805731   -1.5826066   0
    5  632.9143636  657.8254546  629.8050682  -0.5000  -0.5000  -0.5000   -1.5802720   -1.5805731   -1.5826066   0
    5  636.2141286  656.0994058  631.3389018  -0.5000  -0.5000  -0.5000   -1.5802720   -1.5805731   -1.5826066   0
    5  638.5709472  655.7523733  632.1334523  -0.5000  -0.5000  -0.5000   -1.5802720   -1.5805731   -1.5826066   0
    5  640.3338171  656.2282996  632.7986243  -0.5000  -0.5000  -0.5000   -1.5802720   -1.5805731   -1.5826066   0
    5  642.3773443  655.9276653  633.2040017  -0.5000  -0.5000  -0.5000   -1.5802720   -1.5805731   -1.5826066   0
    5  645.4657689  655.0955649  633.6389758  -0.5000  -0.5000  -0.5000   -1.5802720   -1.5805731   -1.5826066   0
    5  648.5086760  654.5918919  634.7894430  -0.5000  -0.5000  -0.5000   -1.5802720   -1.5805731   -1.5826066   0
    5  650.6507465  654.3906503  635.7875067  -0.5000  -0.5000  -0.5000   -1.5802720   -1.5805731   -1.5826066   0
    5  652.5105834  654.1589885  636.6068294  -0.5000  -0.5000  -0.5000   -1.5802720   -1.5805731   -1.5826066   0
    5  654.6159399  654.0365923  637.6968201  -0.5000  -0.5000  -0.5000   -1.5802720   -1.5805731   -1.5826066   0
    5  656.7774543  653.9826164  638.6307555  -0.5000  -0.5000  -0.5000   -1.5802720   -1.5805731   -1.5826066   0
    5  658.5898437  653.7166434  639.7436693  -0.5000  -0.5000  -0.5000   -1.5802720   -1.5805731   -1.5826066   0
    5  660.2179567  653.1881539  641.2980610  -0.5000  -0.5000  -0.5000   -1.5802720   -1.5805731   -1.5826066   0
    5  662.3580013  652.6007253  642.3964170  -0.5000  -0.5000  -0.5000   -1.5802720   -1.5805731   -1.5826066   0
    5  665.4658645  652.3923156  642.5846977  -0.5000  -0.5000  -0.5000   -1.5802720   -1.5805731   -1.5826066   0
    5  668.4558800  652.0013673  642.8001659  -0.5000  -0.5000  -0.5000   -1.5802720   -1.5805731   -1.5826066   0
    5  670.4052200  651.6695499  643.0524511  -0.5000  -0.5000  -0.5000   -1.5802720   -1.5805731   -1.5826066   0
    5  671.9159578  652.3593842  642.2506468  -0.5000  -0.5000  -0.5000   -1.5802720   -1.5805731   -1.5826066   0
    5  673.8123445  653.1529335  640.9752271  -0.5000  -0.5000  -0.5000   -1.5802720   -1.5805731   -1.5826066   0
    5  675.5836077  653.5173325  639.9380123  -0.5000  -0.5000  -0.5000   -1.5802720   -1.5805731   -1.5826066   0
    5  676.4244791  654.1586806  638.8653148  -0.5000  -0.5000  -0.5000   -1.5802720   -1.5805731   -1.5826066   0
    5  677.0817246  655.2193100  637.9048408  -0.5000  -0.5000  -0.5000   -1.5802720   -1.5805731   -1.5826066   0
    5  678.1627480  655.8838721  637.1203723  -0.5000  -0.5000  -0.5000   -1.5802720   -1.5805731   -1.5826066   0
    5  679.4438166  655.8971656  637.1826633  -0.5000  -0.5000  -0.5000   -1.5802720   -1.5805731   -1.5826066   0
    5  680.7803624  655.6859861  638.3869986  -0.5000  -0.5000  -0.5000   -1.5802720   -1.5805731   -1.5826066   0
    5  682.1306251  654.8078538  639.7788650  -0.5000  -0.5000  -0.5000   -1.5802720   -1.5805731   -1.5826066   0
    5  683.0274275  653.5822221  641.3034904  -0.5000  -0.5000  -0.5000   -1.5802720   -1.5805731   -1.5826066   0
    5  683.7528796  653.0443151  642.9899047  -0.5000  -0.5000  -0.5000   -1.5802720   -1.5805731   -1.5826066   0
    5  685.4108622  652.6612750  644.2850188  -0.5000  -0.5000  -0.5000   -1.5802720   -1.5805731   -1.5826066   0
    5  688.1765167  652.0256349  644.8064166  -0.5000  -0.5000  -0.5000   -1.5802720   -1.5805731   -1.5826066   0
    5  691.1851171  651.7245909  645.0802146  -0.5000  -0.5000  -0.5000   -1.5802720   -1.5805731   -1.5826066   0
    5  693.4662819  651.9138928  646.0753816  -0.5000  -0.5000  -0.5000   -1.5802720   -1.5805731   -1.5826066   0
    5  694.6250831  652.2609999  647.6259598  -0.5000  -0.5000  -0.5000   -1.5802720   -1.5805731   -1.5826066   0
    5  694.8277615  652.2490695  649.8734097  -0.5000  -0.5000  -0.5000   -1.5802720   -1.5805731   -1.5826066   0
    5  695.0099181  652.5809503  652.9504687  -0.5000  -0.5000  -0.5000   -1.5802720   -1.5805731   -1.5826066   0
    5  695.0361140  653.4468359  655.9879848  -0.5000  -0.5000  -0.5000   -1.5802720   -1.5805731   -1.5826066   0
    5  694.6383575  653.6581761  658.3691714  -0.5000  -0.5000  -0.5000   -1.5802720   -1.5805731   -1.5826066   0
    5  694.9491643  653.3877332  660.1937549  -0.5000  -0.5000  -0.5000   -1.5802720   -1.5805731   -1.5826066   0
    5  695.8313048  653.5971085  662.0406672  -0.5000  -0.5000  -0.5000   -1.5802720   -1.5805731   -1.5826066   0
    5  696.0909171  654.1478877  664.3550553  -0.5000  -0.5000  -0.5000   -1.5802720   -1.5805731   -1.5826066   0
    5  696.4138734  654.2430328  666.9240549  -0.5000  -0.5000  -0.5000   -1.5802720   -1.5805731   -1.5826066   0
    5  697.8388068  653.5295713  668.6456846  -0.5000  -0.5000  -0.5000   -1.5802720   -1.5805731   -1.5826066   0
    5  699.1606366  652.2756991  669.6320571  -0.5000  -0.5000  -0.5000   -1.5802720   -1.5805731   -1.5826066   0
    5  699.9343365  651.5784926  671.2390682  -0.5000  -0.5000  -0.5000   -1.5802720   -1.5805731   -1.5826066   0
    5  701.4687601  651.7878275  672.6378777  -0.5000  -0.5000  -0.5000   -1.5802720   -1.5805731   -1.5826066   0
    5  703.7822709  651.4949588  672.8784787  -0.5000  -0.5000  -0.5000   -1.5802720   -1.5805731   -1.5826066   0
    5  705.4542197  650.1335087  673.3637356  -0.5000  -0.5000  -0.5000   -1.5802720   -1.5805731   -1.5826066   0
    5  706.6108471  648.6701112  674.5736530  -0.5000  -0.5000  -0.5000   -1.5802720   -1.5805731   -1.5826066   0
    5  708.4064247  647.9053340  675.4293245  -0.5000  -0.5000  -0.5000   -1.5802720   -1.5805731   -1.5826066   0
    5  710.6172037  647.8635628  676.1261130  -0.5000  -0.5000  -0.5000   -1.5802720   -1.5805731   -1.5826066   0
    5  712.7285145  647.7711436  676.9007998  -0.5000  -0.5000  -0.5000   -1.5802720   -1.5805731   -1.5826066   0
    5  714.5546950  647.7636324  676.9013363  -0.5000  -0.5000  -0.5000   -1.5802720   -1.5805731   -1.5826066   0
    5  716.6846902  648.1754800  676.4691183  -0.5000  -0.5000  -0.5000   -1.5802720   -1.5805731   -1.5826066   0
    5  719.3473342  649.0324935  676.0506918  -0.5000  -0.5000  -0.5000   -1.5802720   -1.5805731   -1.5826066   0
    5  720.7439466  651.0599448  675.6897091  -0.5000  -0.5000  -0.5000   -1.5802720   -1.5805731   -1.5826066   0
    5  720.5980623  652.8852703  675.5088787  -0.5000  -0.5000  -0.5000   -1.5802720   -1.5805731   -1.5826066   0
    5  720.0683935  653.2977030  674.8969600  -0.5000  -0.5000  -0.5000   -1.5802720   -1.5805731   -1.5826066   0
    5  719.2302187  653.7103081  674.0282004  -0.5000  -0.5000  -0.5000   -1.5802720   -1.5805731   -1.5826066   0
    5  718.2844067  654.9139765  673.4018321  -0.5000  -0.5000  -0.5000   -1.5802720   -1.5805731   -1.5826066   0
    5  717.9337603  656.4049317  672.7292577  -0.5000  -0.5000  -0.5000   -1.5802720   -1.5805731   -1.5826066   0
    5  718.6633409  656.9788712  671.4610912  -0.5000  -0.5000  -0.5000   -1.5802720   -1.5805731   -1.5826066   0
    5  719.7945071  657.0792542  669.9902118  -0.5000  -0.5000  -0.5000   -1.5802720   -1.5805731   -1.5826066   0
    5  720.1697755  658.6104459  669.2255218  -0.5000  -0.5000  -0.5000   -1.5802720   -1.5805731   -1.5826066   0
    5  719.9353331  660.7638357  668.1382570  -0.5000  -0.5000  -0.5000   -1.5802720   -1.5805731   -1.5826066   0
    5  720.2275156  662.0597343  666.0629124  -0.5000  -0.5000  -0.5000   -1.5802720   -1.5805731   -1.5826066   0
    5  720.8836788  663.4066518  664.3783555  -0.5000  -0.5000  -0.5000   -1.5802720   -1.5805731   -1.5826066   0
    5  721.4977794  665.5520272  663.6037878  -0.5000  -0.5000  -0.5000   -1.5802720   -1.5805731   -1.5826066   0
    5  722.9037302  667.6036218  663.0878456  -0.5000  -0.5000  -0.5000   -1.5802720   -1.5805731   -1.5826066   0
    5  724.9551084  668.7785582  662.5009258  -0.5000  -0.5000  -0.5000   -1.5802720   -1.5805731   -1.5826066   0
    5  726.7779954  669.0179975  662.1140049  -0.5000  -0.5000  -0.5000   -1.5802720   -1.5805731   -1.5826066   0
    5  728.6009446  668.6468598  662.5482656  -0.5000  -0.5000  -0.5000   -1.5802720   -1.5805731   -1.5826066   0
    5  730.5685604  667.8240583  663.8097258  -0.5000  -0.5000  -0.5000   -1.5802720   -1.5805731   -1.5826066   0
    5  732.2714821  666.6286074  664.9790843  -0.5000  -0.5000  -0.5000   -1.5802720   -1.5805731   -1.5826066   0
    5  733.9498702  665.5011160  665.5144726  -0.5000  -0.5000  -0.5000   -1.5802720   -1.5805731   -1.5826066   0
    5  735.7593980  664.9916996  666.1512222  -0.5000  -0.5000  -0.5000   -1.5802720   -1.5805731   -1.5826066   0
    5  737.3671966  665.2812038  667.3879436  -0.5000  -0.5000  -0.5000   -1.5802720   -1.5805731   -1.5826066   0
    5  738.7893702  665.5715003  668.4551425  -0.5000  -0.5000  -0.5000   -1.5802720   -1.5805731   -1.5826066   0
    5  740.2675247  665.5355443  669.1647902  -0.5000  -0.5000  -0.5000   -1.5802720   -1.5805731   -1.5826066   0
    5  741.3707471  665.3348190  670.2971995  -0.5000  -0.5000  -0.5000   -1.5802720   -1.5805731   -1.5826066   0
    5  742.1949772  664.4543508  671.7494484  -0.5000  -0.5000  -0.5000   -1.5802720   -1.5805731   -1.5826066   0
    5  743.5972187  663.2451197  672.6671611  -0.5000  -0.5000  -0.5000   -1.5802720   -1.5805731   -1.5826066   0
    5  745.7080417  662.7938654  673.1642394  -0.5000  -0.5000  -0.5000   -1.5802720   -1.5805731   -1.5826066   0
    5  748.2140479  663.0154713  673.5325126  -0.5000  -0.5000  -0.5000   -1.5802720   -1.5805731   -1.5826066   0
    5  750.3590135  663.4576704  673.5060147  -0.5000  -0.5000  -0.5000   -1.5802720   -1.5805731   -1.5826066   0
    5  752.1656649  664.3197134  673.4472490  -0.5000  -0.5000  -0.5000   -1.5802720   -1.5805731   -1.5826066   0
    5  754.1606559  665.1725712  673.5765703  -0.5000  -0.5000  -0.5000   -1.5802720   -1.5805731   -1.5826066   0
    5  755.9785718  665.0109333  673.3052092  -0.5000  -0.5000  -0.5000   -1.5802720   -1.5805731   -1.5826066   0
    5  757.2540393  664.5087892  673.2963891  -0.5000  -0.5000  -0.5000   -1.5802720   -1.5805731   -1.5826066   0
    5  757.6760996  664.8397881  674.7032769  -0.5000  -0.5000  -0.5000   -1.5802720   -1.5805731   -1.5826066   0
    5  757.7179329  665.6470942  676.4331213  -0.5000  -0.5000  -0.5000   -1.5802720   -1.5805731   -1.5826066   0
    5  758.4778719  666.3729334  677.7296005  -0.5000  -0.5000  -0.5000   -1.5802720   -1.5805731   -1.5826066   0
    5  759.3580901  666.5890524  679.7408810  -0.5000  -0.5000  -0.5000   -1.5802720   -1.5805731   -1.5826066   0
    5  759.8537248  666.1517314  682.3301639  -0.5000  -0.5000  -0.5000   -1.5802720   -1.5805731   -1.5826066   0
    5  760.9227194  665.7947339  684.4726125  -0.5000  -0.5000  -0.5000   -1.5802720   -1.5805731   -1.5826066   0
    5  762.1518186  666.1052337  686.4437916  -0.5000  -0.5000  -0.5000   -1.5802720   -1.5805731   -1.5826066   0
    5  762.8247290  666.2869521  688.4451454  -0.5000  -0.5000  -0.5000   -1.5802720   -1.5805731   -1.5826066   0
    5  763.7305239  665.9706277  690.2922207  -0.5000  -0.5000  -0.5000   -1.5802720   -1.5805731   -1.5826066   0
    5  764.9775842  665.8849426  692.2592535  -0.5000  -0.5000  -0.5000   -1.5802720   -1.5805731   -1.5826066   0
    5  765.8367725  666.0250151  694.4391035  -0.5000  -0.5000  -0.5000   -1.5802720   -1.5805731   -1.5826066   0
    5  766.1732646  666.6633203  696.1382814  -0.5000  -0.5000  -0.5000   -1.5802720   -1.5805731   -1.5826066   0
    5  766.3497824  668.4319399  696.5319276  -0.5000  -0.5000  -0.5000   -1.5802720   -1.5805731   -1.5826066   0
    5  766.2190569  670.4165567  696.5413625  -0.5000  -0.5000  -0.5000   -1.5802720   -1.5805731   -1.5826066   0
    5  765.5745330  671.5039156  697.9452614  -0.5000  -0.5000  -0.5000   -1.5802720   -1.5805731   -1.5826066   0
    5  765.1908820  671.8499065  700.7744732  -0.5000  -0.5000  -0.5000   -1.5802720   -1.5805731   -1.5826066   0
    5  765.2054475  672.0670839  704.0291225  -0.5000  -0.5000  -0.5000   -1.5802720   -1.5805731   -1.5826066   0
    5  765.3946114  672.5733950  707.0901024  -0.5000  -0.5000  -0.5000   -1.5802720   -1.5805731   -1.5826066   0
    5  765.9268954  673.0823109  709.8716196  -0.5000  -0.5000  -0.5000   -1.5802720   -1.5805731   -1.5826066   0
    5  766.5793122  673.7117251  712.6933596  -0.5000  -0.5000  -0.5000   -1.5802720   -1.5805731   -1.5826066   0
    5  767.3336999  674.7302380  715.4950961  -0.5000  -0.5000  -0.5000   -1.5802720   -1.5805731   -1.5826066   0
    5  768.1389851  675.3481661  718.1263064  -0.5000  -0.5000  -0.5000   -1.5802720   -1.5805731   -1.5826066   0
    5  769.0916725  675.4069279  720.5739377  -0.5000  -0.5000  -0.5000   -1.5802720   -1.5805731   -1.5826066   0
    5  770.0772042  675.5452063  722.7353404  -0.5000  -0.5000  -0.5000   -1.5802720   -1.5805731   -1.5826066   0