ITEM: TIMESTEP
0
ITEM: NUMBER OF ATOMS
16138
ITEM: BOX BOUNDS pp pp pp 
0.0 696.644324
0.0 696.718470
0.0 696.684861
ITEM: ATOMS id x y z tbx tby tbz sbx sby sbz loop
    0   32.4964600  637.2964313  414.6720638   1.0000  -0.0000  -0.0000    3.1647685   -0.0001727    0.0000671   1
    0   31.6780972  638.8972432  414.3294510   1.0000  -0.0000  -0.0000    3.1647685   -0.0001727    0.0000671   1
    0   31.1986028  641.1542619  413.3411612   1.0000  -0.0000  -0.0000    3.1647685   -0.0001727    0.0000671   1
    0   31.3284536  643.5069387  411.7576825   1.0000  -0.0000  -0.0000    3.1647685   -0.0001727    0.0000671   1
    0   31.4172489  645.6862948  410.7070176   1.0000  -0.0000  -0.0000    3.1647685   -0.0001727    0.0000671   1
    0   31.4134902  647.3783629  411.6785936   1.0000  -0.0000  -0.0000    3.1647685   -0.0001727    0.0000671   1
    0   31.8879847  649.0969282  413.5189627   1.0000  -0.0000  -0.0000    3.1647685   -0.0001727    0.0000671   1
    0   32.4108943  651.0314629  415.3256444   1.0000  -0.0000  -0.0000    3.1647685   -0.0001727    0.0000671   1
    0   32.7347348  652.0437781  417.3744945   1.0000  -0.0000  -0.0000    3.1647685   -0.0001727    0.0000671   1
    0   33.4228879  651.7734628  419.4932577   1.0000  -0.0000  -0.0000    3.1647685   -0.0001727    0.0000671   1
    0   34.1686051  650.6081485  421.1788080   1.0000  -0.0000  -0.0000    3.1647685   -0.0001727    0.0000671   1
    0   34.2345787  648.8959091  422.4713299   1.0000  -0.0000  -0.0000    3.1647685   -0.0001727    0.0000671   1
    0   34.0424069  647.1833955  424.1522008   1.0000  -0.0000  -0.0000    3.1647685   -0.0001727    0.0000671   1
    0   33.6584360  645.6366136  425.8650484   1.0000  -0.0000  -0.0000    3.1647685   -0.0001727    0.0000671   1
    0   33.2965803  644.1887638  426.5916671   1.0000  -0.0000  -0.0000    3.1647685   -0.0001727    0.0000671   1
    0   33.6622330  642.6835304  425.8055655   1.0000  -0.0000  -0.0000    3.1647685   -0.0001727    0.0000671   1
    0   33.8345669  640.8900779  423.7587378   1.0000  -0.0000  -0.0000    3.1647685   -0.0001727    0.0000671   1
    0   33.2271504  638.9294945  421.6638053   1.0000  -0.0000  -0.0000    3.1647685   -0.0001727    0.0000671   1
    0   32.4847350  637.6223168  419.9683169   1.0000  -0.0000  -0.0000    3.1647685   -0.0001727    0.0000671   1
    0   31.8111234  637.0944434  418.4732507   1.0000  -0.0000  -0.0000    3.1647685   -0.0001727    0.0000671   1
    0   31.4729710  636.4673671  417.2299402   1.0000  -0.0000  -0.0000    3.1647685   -0.0001727    0.0000671   1
    0   31.8314403  636.2258571  416.1480446   1.0000  -0.0000  -0.0000    3.1647685   -0.0001727    0.0000671   1
    0   32.4964599  637.2964313  414.6720638   1.0000  -0.0000  -0.0000    3.1647685   -0.0001727    0.0000671   1
    1  254.8907002  492.7352679  353.1422915  -0.0000   1.0000  -0.0000    0.0001660    3.1647641   -0.0002610   1
    1  253.8831960  493.8008693  351.8792806  -0.0000   1.0000  -0.0000    0.0001660    3.1647641   -0.0002610   1
    1  252.2864454  494.5167624  350.5589645  -0.0000   1.0000  -0.0000    0.0001660    3.1647641   -0.0002610   1
    1  250.1453786  494.1488800  350.2527767  -0.0000   1.0000  -0.0000    0.0001660    3.1647641   -0.0002610   1
    1  248.2168454  494.1083067  350.5545984  -0.0000   1.0000  -0.0000    0.0001660    3.1647641   -0.0002610   1
    1  246.6301947  494.7065609  351.5620717  -0.0000   1.0000  -0.0000    0.0001660    3.1647641   -0.0002610   1
    1  245.1663398  494.9005475  352.9538447  -0.0000   1.0000  -0.0000    0.0001660    3.1647641   -0.0002610   1
    1  244.0917283  495.0147419  354.5338113  -0.0000   1.0000  -0.0000    0.0001660    3.1647641   -0.0002610   1
    1  243.6160922  495.4680428  356.4209095  -0.0000   1.0000  -0.0000    0.0001660    3.1647641   -0.0002610   1
    1  243.8242265  495.6747677  358.4911821  -0.0000   1.0000  -0.0000    0.0001660    3.1647641   -0.0002610   1
    1  244.9386859  495.4139324  360.0266154  -0.0000   1.0000  -0.0000    0.0001660    3.1647641   -0.0002610   1
    1  246.5599638  494.8188276  360.9002840  -0.0000   1.0000  -0.0000    0.0001660    3.1647641   -0.0002610   1
    1  247.9711032  494.5127209  361.5517175  -0.0000   1.0000  -0.0000    0.0001660    3.1647641   -0.0002610   1
    1  249.3699843  494.3758865  361.1795736  -0.0000   1.0000  -0.0000    0.0001660    3.1647641   -0.0002610   1
    1  251.0767631  493.8882821  359.6466514  -0.0000   1.0000  -0.0000    0.0001660    3.1647641   -0.0002610   1
    1  252.7458776  493.6050148  357.8171309  -0.0000   1.0000  -0.0000    0.0001660    3.1647641   -0.0002610   1
    1  254.1349727  493.5878968  356.0342508  -0.0000   1.0000  -0.0000    0.0001660    3.1647641   -0.0002610   1
    1  254.9047041  493.2764285  354.7222544  -0.0000   1.0000  -0.0000    0.0001660    3.1647641   -0.0002610   1
    1  254.8907001  492.7352678  353.1422915  -0.0000   1.0000  -0.0000    0.0001660    3.1647641   -0.0002610   1
    2  604.3676916  415.9061999  425.2335875   0.5000  -0.5000  -0.5000    1.5821475   -1.5824482   -1.5822422   0
    2  607.6274790  420.2095223  424.0351031   0.5000  -0.5000  -0.5000    1.5821475   -1.5824482   -1.5822422   0
    2  608.8880016  422.1713694  422.6947773   0.5000  -0.5000  -0.5000    1.5821475   -1.5824482   -1.5822422   0
    2  609.3008081  422.9542712  421.1423523   0.5000  -0.5000  -0.5000    1.5821475   -1.5824482   -1.5822422   0
    2  609.5855456  424.3387920  419.4724742   0.5000  -0.5000  -0.5000    1.5821475   -1.5824482   -1.5822422   0
    2  609.4796559  425.6590469  418.0647955   0.5000  -0.5000  -0.5000    1.5821475   -1.5824482   -1.5822422   0
    2  608.5824172  425.5799445  417.3321123   0.5000  -0.5000  -0.5000    1.5821475   -1.5824482   -1.5822422   0
    2  606.6370999  424.4811612  416.7256252   0.5000  -0.5000  -0.5000    1.5821475   -1.5824482   -1.5822422   0
    2  604.6628503  423.0801055  416.4467132   0.5000  -0.5000  -0.5000    1.5821475   -1.5824482   -1.5822422   0
    2  603.6050346  421.4404939  417.1216504   0.5000  -0.5000  -0.5000    1.5821475   -1.5824482   -1.5822422   0
    2  602.9575604  419.7428196  418.0192085   0.5000  -0.5000  -0.5000    1.5821475   -1.5824482   -1.5822422   0
    2  602.2646179  417.7832647  418.7077448   0.5000  -0.5000  -0.5000    1.5821475   -1.5824482   -1.5822422   0
    2  600.8547247  415.7892656  419.5619505   0.5000  -0.5000  -0.5000    1.5821475   -1.5824482   -1.5822422   0
    2  598.8810597  414.9471096  420.2749251   0.5000  -0.5000  -0.5000    1.5821475   -1.5824482   -1.5822422   0
    2  599.5301085  415.2929364  421.6923250   0.5000  -0.5000  -0.5000    1.5821475   -1.5824482   -1.5822422   0
    2  604.3676916  415.9061999  425.2335875   0.5000  -0.5000  -0.5000    1.5821475   -1.5824482   -1.5822422   0
    3  491.6111303  558.1920212   33.0598548  -1.0000   0.0000   0.0000   -3.1647685    0.0001727   -0.0000671   0
    3  492.9999368  555.0808239   33.2085818  -1.0000   0.0000   0.0000   -3.1647685    0.0001727   -0.0000671   0
    3  494.1457591  553.0916648   33.8664761  -1.0000   0.0000   0.0000   -3.1647685    0.0001727   -0.0000671   0
    3  495.7050538  551.6388856   34.5652355  -1.0000   0.0000   0.0000   -3.1647685    0.0001727   -0.0000671   0
    3  496.8936697  550.1882916   35.6514712  -1.0000   0.0000   0.0000   -3.1647685    0.0001727   -0.0000671   0
    3  497.3465606  548.8762678   37.1640425  -1.0000   0.0000   0.0000   -3.1647685    0.0001727   -0.0000671   0
    3  497.6889508  548.0185014   38.9622484  -1.0000   0.0000   0.0000   -3.1647685    0.0001727   -0.0000671   0
    3  498.3586504  547.5355261   40.8636125  -1.0000   0.0000   0.0000   -3.1647685    0.0001727   -0.0000671   0
    3  499.6610814  547.4402062   42.2403473  -1.0000   0.0000   0.0000   -3.1647685    0.0001727   -0.0000671   0
    3  501.1110453  547.5086807   43.6799935  -1.0000   0.0000   0.0000   -3.1647685    0.0001727   -0.0000671   0
    3  502.3329866  547.7111190   45.5577092  -1.0000   0.0000   0.0000   -3.1647685    0.0001727   -0.0000671   0
    3  503.4266827  548.4329323   47.1451319  -1.0000   0.0000   0.0000   -3.1647685    0.0001727   -0.0000671   0
    3  504.8273773  549.0522197   48.1920430  -1.0000   0.0000   0.0000   -3.1647685    0.0001727   -0.0000671   0
    3  506.4217589  549.3017781   48.7447955  -1.0000   0.0000   0.0000   -3.1647685    0.0001727   -0.0000671   0
    3  507.5657605  549.3521607   49.6451013  -1.0000   0.0000   0.0000   -3.1647685    0.0001727   -0.0000671   0
    3  508.7698296  549.2165002   51.3291982  -1.0000   0.0000   0.0000   -3.1647685    0.0001727   -0.0000671   0
    3  510.5882018  548.6826994   53.0904622  -1.0000   0.0000   0.0000   -3.1647685    0.0001727   -0.0000671   0
    3  512.4259514  547.3887188   54.8306476  -1.0000   0.0000   0.0000   -3.1647685    0.0001727   -0.0000671   0
    3  514.2263064  545.9434491   56.2241800  -1.0000   0.0000   0.0000   -3.1647685    0.0001727   -0.0000671   0
    3  516.0598703  545.2537446   56.8797382  -1.0000   0.0000   0.0000   -3.1647685    0.0001727   -0.0000671   0
    3  517.8050126  545.4588114   57.2917128  -1.0000   0.0000   0.0000   -3.1647685    0.0001727   -0.0000671   0
    3  520.1348619  546.1717746   57.6999307  -1.0000   0.0000   0.0000   -3.1647685    0.0001727   -0.0000671   0
    4  491.6391136  210.8252045  429.4261136   0.5000  -0.5000   0.5000    1.5824551   -1.5824886    1.5825703   0
    4  490.4740672  212.1648649  432.1630887   0.5000  -0.5000   0.5000    1.5824551   -1.5824886    1.5825703   0
    4  491.1268392  213.4582042  433.3139597   0.5000  -0.5000   0.5000    1.5824551   -1.5824886    1.5825703   0
    4  492.5841013  214.8641094  433.8349856   0.5000  -0.5000   0.5000    1.5824551   -1.5824886    1.5825703   0
    4  493.9745638  216.1724911  433.9770542   0.5000  -0.5000   0.5000    1.5824551   -1.5824886    1.5825703   0
    4  495.2399640  217.4354576  434.0111713   0.5000  -0.5000   0.5000    1.5824551   -1.5824886    1.5825703   0
    4  496.3272754  219.0482183  434.5991064   0.5000  -0.5000   0.5000    1.5824551   -1.5824886    1.5825703   0
    4  497.6056025  220.7500122  435.1354431   0.5000  -0.5000   0.5000    1.5824551   -1.5824886    1.5825703   0
    4  499.3673511  221.7391803  435.3452473   0.5000  -0.5000   0.5000    1.5824551   -1.5824886    1.5825703   0
    4  501.4025935  222.2545126  434.9463882   0.5000  -0.5000   0.5000    1.5824551   -1.5824886    1.5825703   0
    4  503.0570659  222.4354140  434.1340381   0.5000  -0.5000   0.5000    1.5824551   -1.5824886    1.5825703   0
    4  504.0568617  222.3857988  433.8843622   0.5000  -0.5000   0.5000    1.5824551   -1.5824886    1.5825703   0
    4  504.8004969  222.6355687  433.2298694   0.5000  -0.5000   0.5000    1.5824551   -1.5824886    1.5825703   0
    4  505.3645535  222.1801505  431.6507714   0.5000  -0.5000   0.5000    1.5824551   -1.5824886    1.5825703   0
    4  505.9995473  221.1536131  431.4234771   0.5000  -0.5000   0.5000    1.5824551   -1.5824886    1.5825703   0
    4  507.2966153  220.9674415  433.0519863   0.5000  -0.5000   0.5000    1.5824551   -1.5824886    1.5825703   0
    4  509.0890631  221.1210996  434.5591362   0.5000  -0.5000   0.5000    1.5824551   -1.5824886    1.5825703   0
    4  510.5671345  221.5043197  435.0554494   0.5000  -0.5000   0.5000    1.5824551   -1.5824886    1.5825703   0
    4  510.8650631  222.9018270  435.0630153   0.5000  -0.5000   0.5000    1.5824551   -1.5824886    1.5825703   0
    4  510.5412848  225.1064932  435.5448185   0.5000  -0.5000   0.5000    1.5824551   -1.5824886    1.5825703   0
    4  511.5432633  227.1645099  435.9926195   0.5000  -0.5000   0.5000    1.5824551   -1.5824886    1.5825703   0
    4  513.9445149  228.7127285  435.4693356   0.5000  -0.5000   0.5000    1.5824551   -1.5824886    1.5825703   0
    4  516.0043604  229.5303610  435.1830647   0.5000  -0.5000   0.5000    1.5824551   -1.5824886    1.5825703   0
    4  515.8901691  228.8240940  435.8333124   0.5000  -0.5000   0.5000    1.5824551   -1.5824886    1.5825703   0
    4  514.0572693  228.1306542  436.7810163   0.5000  -0.5000   0.5000    1.5824551   -1.5824886    1.5825703   0
    4  512.9014835  229.0759292  438.3596984   0.5000  -0.5000   0.5000    1.5824551   -1.5824886    1.5825703   0
    4  512.4026848  231.0158914  440.2178640   0.5000  -0.5000   0.5000    1.5824551   -1.5824886    1.5825703   0
    4  511.9908883  233.2633986  441.2648154   0.5000  -0.5000   0.5000    1.5824551   -1.5824886    1.5825703   0
    4  512.8108241  235.2360195  441.8221184   0.5000  -0.5000   0.5000    1.5824551   -1.5824886    1.5825703   0
    4  515.5273660  236.2411640  442.2376428   0.5000  -0.5000   0.5000    1.5824551   -1.5824886    1.5825703   0
    4  518.4671961  236.8713539  442.2932459   0.5000  -0.5000   0.5000    1.5824551   -1.5824886    1.5825703   0
    4  520.0227242  238.1750688  442.4021380   0.5000  -0.5000   0.5000    1.5824551   -1.5824886    1.5825703   0
    4  521.0538432  239.5194356  442.8966103   0.5000  -0.5000   0.5000    1.5824551   -1.5824886    1.5825703   0
    4  522.4840730  240.5593860  442.8823224   0.5000  -0.5000   0.5000    1.5824551   -1.5824886    1.5825703   0
    4  523.8027183  241.5014190  441.5493144   0.5000  -0.5000   0.5000    1.5824551   -1.5824886    1.5825703   0
    4  524.9211728  241.8851942  439.9785238   0.5000  -0.5000   0.5000    1.5824551   -1.5824886    1.5825703   0
    4  526.4628154  241.2192807  439.6407529   0.5000  -0.5000   0.5000    1.5824551   -1.5824886    1.5825703   0
    4  527.2953113  240.2967208  440.3145095   0.5000  -0.5000   0.5000    1.5824551   -1.5824886    1.5825703   0
    4  527.2733542  240.8738939  441.5217507   0.5000  -0.5000   0.5000    1.5824551   -1.5824886    1.5825703   0
    4  527.8138128  243.0927656  443.0880336   0.5000  -0.5000   0.5000    1.5824551   -1.5824886    1.5825703   0
    4  527.9255241  245.4068884  444.3836606   0.5000  -0.5000   0.5000    1.5824551   -1.5824886    1.5825703   0
    4  527.0688316  246.7929429  445.6520336   0.5000  -0.5000   0.5000    1.5824551   -1.5824886    1.5825703   0
    4  526.3711846  248.1603709  447.3397710   0.5000  -0.5000   0.5000    1.5824551   -1.5824886    1.5825703   0
    4  526.5012828  250.3392935  448.5693275   0.5000  -0.5000   0.5000    1.5824551   -1.5824886    1.5825703   0
    4  527.7166947  252.3802119  448.7152300   0.5000  -0.5000   0.5000    1.5824551   -1.5824886    1.5825703   0
    4  529.4492047  253.2355697  447.8108649   0.5000  -0.5000   0.5000    1.5824551   -1.5824886    1.5825703   0
    4  531.1477760  253.1050003  446.5782736   0.5000  -0.5000   0.5000    1.5824551   -1.5824886    1.5825703   0
    4  532.8038792  253.3922064  446.3306836   0.5000  -0.5000   0.5000    1.5824551   -1.5824886    1.5825703   0
    4  533.9823083  255.3796548  446.8747694   0.5000  -0.5000   0.5000    1.5824551   -1.5824886    1.5825703   0
    4  534.7588417  258.1275528  447.6958100   0.5000  -0.5000   0.5000    1.5824551   -1.5824886    1.5825703   0
    4  535.9963417  259.7579455  449.0738449   0.5000  -0.5000   0.5000    1.5824551   -1.5824886    1.5825703   0
    4  537.2222739  260.5528856  449.9039779   0.5000  -0.5000   0.5000    1.5824551   -1.5824886    1.5825703   0
    4  537.9797892  261.8898378  449.2367217   0.5000  -0.5000   0.5000    1.5824551   -1.5824886    1.5825703   0
    4  539.0616435  263.7297885  448.1967421   0.5000  -0.5000   0.5000    1.5824551   -1.5824886    1.5825703   0
    4  540.1684015  265.6767017  447.8238292   0.5000  -0.5000   0.5000    1.5824551   -1.5824886    1.5825703   0
    4  540.6696933  268.0009964  448.5087244   0.5000  -0.5000   0.5000    1.5824551   -1.5824886    1.5825703   0
    4  540.8890770  269.9797811  449.8059985   0.5000  -0.5000   0.5000    1.5824551   -1.5824886    1.5825703   0
    4  540.9910848  271.7172609  450.6631550   0.5000  -0.5000   0.5000    1.5824551   -1.5824886    1.5825703   0
    4  540.6052203  273.8289306  451.1506093   0.5000  -0.5000   0.5000    1.5824551   -1.5824886    1.5825703   0
    4  539.5529766  275.5392480  451.9905456   0.5000  -0.5000   0.5000    1.5824551   -1.5824886    1.5825703   0
    4  537.9830538  276.2741211  453.0136346   0.5000  -0.5000   0.5000    1.5824551   -1.5824886    1.5825703   0
    4  536.2000496  276.4673568  453.9304517   0.5000  -0.5000   0.5000    1.5824551   -1.5824886    1.5825703   0
    4  534.1824770  277.2134411  454.6376484   0.5000  -0.5000   0.5000    1.5824551   -1.5824886    1.5825703   0
    4  531.8968562  278.5490654  455.3711551   0.5000  -0.5000   0.5000    1.5824551   -1.5824886    1.5825703   0
    4  530.1304057  279.9796558  456.2541589   0.5000  -0.5000   0.5000    1.5824551   -1.5824886    1.5825703   0
    4  528.5107900  281.2313902  456.9673401   0.5000  -0.5000   0.5000    1.5824551   -1.5824886    1.5825703   0
    4  526.8894754  282.4708161  457.9923092   0.5000  -0.5000   0.5000    1.5824551   -1.5824886    1.5825703   0
    4  526.2713575  283.8811289  459.3312815   0.5000  -0.5000   0.5000    1.5824551   -1.5824886    1.5825703   0
    4  525.9394177  284.6124390  460.7826180   0.5000  -0.5000   0.5000    1.5824551   -1.5824886    1.5825703   0
    4  524.8982567  284.4588059  461.6168734   0.5000  -0.5000   0.5000    1.5824551   -1.5824886    1.5825703   0
    4  523.4626804  283.9278023  460.9591067   0.5000  -0.5000   0.5000    1.5824551   -1.5824886    1.5825703   0
    4  521.7541090  283.3742325  460.0199451   0.5000  -0.5000   0.5000    1.5824551   -1.5824886    1.5825703   0
    4  519.9545814  282.7800948  459.6746644   0.5000  -0.5000   0.5000    1.5824551   -1.5824886    1.5825703   0
    4  518.9185259  281.6955836  458.8896226   0.5000  -0.5000   0.5000    1.5824551   -1.5824886    1.5825703   0
    4  518.3263686  280.2107868  457.1451604   0.5000  -0.5000   0.5000    1.5824551   -1.5824886    1.5825703   0
    4  517.0913462  278.5204408  455.7076163   0.5000  -0.5000   0.5000    1.5824551   -1.5824886    1.5825703   0
    4  515.4466181  277.1691111  455.0354973   0.5000  -0.5000   0.5000    1.5824551   -1.5824886    1.5825703   0
    4  514.3384222  276.5330981  453.8611449   0.5000  -0.5000   0.5000    1.5824551   -1.5824886    1.5825703   0
    4  513.8138375  275.3193727  452.3641660   0.5000  -0.5000   0.5000    1.5824551   -1.5824886    1.5825703   0
    4  512.5745818  273.3769569  451.7159702   0.5000  -0.5000   0.5000    1.5824551   -1.5824886    1.5825703   0
    4  510.6012738  271.8115213  451.4251181   0.5000  -0.5000   0.5000    1.5824551   -1.5824886    1.5825703   0
    4  508.9907888  270.5884252  450.8192185   0.5000  -0.5000   0.5000    1.5824551   -1.5824886    1.5825703   0
    4  506.8746770  269.8942287  450.4475686   0.5000  -0.5000   0.5000    1.5824551   -1.5824886    1.5825703   0
    4  504.0251605  269.5257893  450.5329187   0.5000  -0.5000   0.5000    1.5824551   -1.5824886    1.5825703   0
    4  501.6102086  269.5568163  450.8139487   0.5000  -0.5000   0.5000    1.5824551   -1.5824886    1.5825703   0
    4  500.0482692  270.9361328  451.7522325   0.5000  -0.5000   0.5000    1.5824551   -1.5824886    1.5825703   0
    4  499.7620131  272.4231545  453.5974408   0.5000  -0.5000   0.5000    1.5824551   -1.5824886    1.5825703   0
    4  500.2914190  272.2208146  455.1688660   0.5000  -0.5000   0.5000    1.5824551   -1.5824886    1.5825703   0
    4  500.3527997  270.6845067  455.1649374   0.5000  -0.5000   0.5000    1.5824551   -1.5824886    1.5825703   0
    4  499.7624284  269.1701300  453.7595320   0.5000  -0.5000   0.5000    1.5824551   -1.5824886    1.5825703   0
    4  499.0280721  268.0563389  452.1594183   0.5000  -0.5000   0.5000    1.5824551   -1.5824886    1.5825703   0
    4  498.1745797  267.1872888  451.0768578   0.5000  -0.5000   0.5000    1.5824551   -1.5824886    1.5825703   0
    4  496.6664784  266.6123554  450.6199323   0.5000  -0.5000   0.5000    1.5824551   -1.5824886    1.5825703   0
    4  494.3793062  266.0377763  450.8664297   0.5000  -0.5000   0.5000    1.5824551   -1.5824886    1.5825703   0
    4  492.2743569  266.1743000  451.6934071   0.5000  -0.5000   0.5000    1.5824551   -1.5824886    1.5825703   0
    4  490.3636861  267.1365948  452.7074422   0.5000  -0.5000   0.5000    1.5824551   -1.5824886    1.5825703   0
    4  488.0850577  267.7714608  454.0083422   0.5000  -0.5000   0.5000    1.5824551   -1.5824886    1.5825703   0
    4  486.3763352  268.3453509  455.5822819   0.5000  -0.5000   0.5000    1.5824551   -1.5824886    1.5825703   0
    4  485.3058520  269.6137611  456.8043461   0.5000  -0.5000   0.5000    1.5824551   -1.5824886    1.5825703   0
    4  484.5189909  270.9590322  457.5671512   0.5000  -0.5000   0.5000    1.5824551   -1.5824886    1.5825703   0
    4  483.7775055  271.6573102  458.3074186   0.5000  -0.5000   0.5000    1.5824551   -1.5824886    1.5825703   0
    4  482.4214921  272.4488730  459.6147460   0.5000  -0.5000   0.5000    1.5824551   -1.5824886    1.5825703   0
    5  469.7117666  241.5414999  468.3409334  -0.5000  -0.5000  -0.5000   -1.5826211   -1.5822755   -1.5823093   0
    5  467.7998149  239.9613266  470.2931799  -0.5000  -0.5000  -0.5000   -1.5826211   -1.5822755   -1.5823093   0
    5  465.6896249  239.3602976  471.5316011  -0.5000  -0.5000  -0.5000   -1.5826211   -1.5822755   -1.5823093   0
    5  463.5666628  239.3817630  472.3169935  -0.5000  -0.5000  -0.5000   -1.5826211   -1.5822755   -1.5823093   0
    5  462.3763698  239.0489771  473.6658461  -0.5000  -0.5000  -0.5000   -1.5826211   -1.5822755   -1.5823093   0
    5  462.0323783  238.1844866  475.2872396  -0.5000  -0.5000  -0.5000   -1.5826211   -1.5822755   -1.5823093   0
    5  461.9005279  237.0330254  476.7624648  -0.5000  -0.5000  -0.5000   -1.5826211   -1.5822755   -1.5823093   0
    5  461.7938623  236.1919500  478.1656293  -0.5000  -0.5000  -0.5000   -1.5826211   -1.5822755   -1.5823093   0
    5  461.9279686  235.1335511  478.8225219  -0.5000  -0.5000  -0.5000   -1.5826211   -1.5822755   -1.5823093   0
    5  461.9946863  233.1783039  478.7156929  -0.5000  -0.5000  -0.5000   -1.5826211   -1.5822755   -1.5823093   0
    5  462.4338595  231.4029343  479.1107570  -0.5000  -0.5000  -0.5000   -1.5826211   -1.5822755   -1.5823093   0
    5  463.5863572  230.1174286  480.2519286  -0.5000  -0.5000  -0.5000   -1.5826211   -1.5822755   -1.5823093   0
    6  416.8941862  191.3717815  258.0329091  -0.0000  -0.0000   1.0000    0.0003076   -0.0000403    3.1648125   1
    6  415.0065907  190.0985896  258.3318993  -0.0000  -0.0000   1.0000    0.0003076   -0.0000403    3.1648125   1
    6  412.2633032  190.0651004  258.4681042  -0.0000  -0.0000   1.0000    0.0003076   -0.0000403    3.1648125   1
    6  409.9821159  191.0971952  258.5698850  -0.0000  -0.0000   1.0000    0.0003076   -0.0000403    3.1648125   1
    6  408.4304349  192.7973403  259.5244972  -0.0000  -0.0000   1.0000    0.0003076   -0.0000403    3.1648125   1
    6  406.9395290  194.6150800  260.5938148  -0.0000  -0.0000   1.0000    0.0003076   -0.0000403    3.1648125   1
    6  405.1268982  195.4530224  260.6098266  -0.0000  -0.0000   1.0000    0.0003076   -0.0000403    3.1648125   1
    6  402.9027145  195.1748843  260.3338643  -0.0000  -0.0000   1.0000    0.0003076   -0.0000403    3.1648125   1
    6  400.8232926  194.4037734  260.8416832  -0.0000  -0.0000   1.0000    0.0003076   -0.0000403    3.1648125   1
    6  399.3305522  193.3800390  262.1539039  -0.0000  -0.0000   1.0000    0.0003076   -0.0000403    3.1648125   1
    6  398.0372710  191.9896286  263.2812091  -0.0000  -0.0000   1.0000    0.0003076   -0.0000403    3.1648125   1
    6  396.5653869  190.3459107  263.3516973  -0.0000  -0.0000   1.0000    0.0003076   -0.0000403    3.1648125   1
    6  395.3806434  188.6450280  263.3393583  -0.0000  -0.0000   1.0000    0.0003076   -0.0000403    3.1648125   1
    6  394.9210682  186.6969750  263.5042613  -0.0000  -0.0000   1.0000    0.0003076   -0.0000403    3.1648125   1
    6  395.1983061  184.4760056  263.0617246  -0.0000  -0.0000   1.0000    0.0003076   -0.0000403    3.1648125   1
    6  396.0920289  182.4418035  262.9079954  -0.0000  -0.0000   1.0000    0.0003076   -0.0000403    3.1648125   1
    6  397.5641300  180.9266107  263.2263013  -0.0000  -0.0000   1.0000    0.0003076   -0.0000403    3.1648125   1
    6  399.6030252  180.0788649  262.8050094  -0.0000  -0.0000   1.0000    0.0003076   -0.0000403    3.1648125   1
    6  401.6768814  179.9686667  261.8409626  -0.0000  -0.0000   1.0000    0.0003076   -0.0000403    3.1648125   1
    6  403.4497938  180.3766781  261.2137214  -0.0000  -0.0000   1.0000    0.0003076   -0.0000403    3.1648125   1
    6  405.0562490  181.1898262  260.5630462  -0.0000  -0.0000   1.0000    0.0003076   -0.0000403    3.1648125   1
    6  406.5384386  181.9287790  259.7795289  -0.0000  -0.0000   1.0000    0.0003076   -0.0000403    3.1648125   1
    6  408.2904886  182.2346418  259.6874623  -0.0000  -0.0000   1.0000    0.0003076   -0.0000403    3.1648125   1
    6  410.2628724  182.8346540  259.7532532  -0.0000  -0.0000   1.0000    0.0003076   -0.0000403    3.1648125   1
    6  411.7644027  184.2496817  259.6725797  -0.0000  -0.0000   1.0000    0.0003076   -0.0000403    3.1648125   1
    6  412.6385726  186.0601041  259.6430365  -0.0000  -0.0000   1.0000    0.0003076   -0.0000403    3.1648125   1
    6  413.3922453  187.9756989  258.8591439  -0.0000  -0.0000   1.0000    0.0003076   -0.0000403    3.1648125   1
    6  414.4777399  190.1173724  258.0105356  -0.0000  -0.0000   1.0000    0.0003076   -0.0000403    3.1648125   1
    6  415.7181467  191.5029553  257.8752745  -0.0000  -0.0000   1.0000    0.0003076   -0.0000403    3.1648125   1
    6  416.8941862  191.3717815  258.0329091  -0.0000  -0.0000   1.0000    0.0003076   -0.0000403    3.1648125   1
    7  225.7362452  452.1928494   33.4523500   0.5000  -0.5000   0.5000    1.5824551   -1.5824886    1.5825703   0
    7  224.2550969  449.2773342   31.6983203   0.5000  -0.5000   0.5000    1.5824551   -1.5824886    1.5825703   0
    7  223.9942267  446.9017157   30.3567811   0.5000  -0.5000   0.5000    1.5824551   -1.5824886    1.5825703   0
    7  223.7596387  444.8815171   29.4485778   0.5000  -0.5000   0.5000    1.5824551   -1.5824886    1.5825703   0
    7  222.2532792  443.7404690   29.3988827   0.5000  -0.5000   0.5000    1.5824551   -1.5824886    1.5825703   0
    7  220.5665724  443.2675882   30.7636405   0.5000  -0.5000   0.5000    1.5824551   -1.5824886    1.5825703   0
    7  219.9327025  443.5560581   33.0108894   0.5000  -0.5000   0.5000    1.5824551   -1.5824886    1.5825703   0
    7  220.1034467  445.4036598   34.2842414   0.5000  -0.5000   0.5000    1.5824551   -1.5824886    1.5825703   0
    7  221.2123218  447.4199896   34.2121210   0.5000  -0.5000   0.5000    1.5824551   -1.5824886    1.5825703   0
    7  223.3894982  448.2170605   33.5965118   0.5000  -0.5000   0.5000    1.5824551   -1.5824886    1.5825703   0
    7  225.2555796  449.3684577   33.1130149   0.5000  -0.5000   0.5000    1.5824551   -1.5824886    1.5825703   0
    7  225.7362452  452.1928494   33.4523500   0.5000  -0.5000   0.5000    1.5824551   -1.5824886    1.5825703   0
    8  173.6612739  403.2349940  692.1074940   0.5000  -0.5000   0.5000    1.5824551   -1.5824886    1.5825703   0
    8  176.1209113  404.1911033  692.8000310   0.5000  -0.5000   0.5000    1.5824551   -1.5824886    1.5825703   0
    8  178.2938644  404.9789527  693.6063230   0.5000  -0.5000   0.5000    1.5824551   -1.5824886    1.5825703   0
    8  179.6719056  405.8750229  694.1721653   0.5000  -0.5000   0.5000    1.5824551   -1.5824886    1.5825703   0
    8  180.8489132  406.7895190  693.6889702   0.5000  -0.5000   0.5000    1.5824551   -1.5824886    1.5825703   0
    8  182.6607253  407.4003643  692.8971994   0.5000  -0.5000   0.5000    1.5824551   -1.5824886    1.5825703   0
    8  185.0559337  407.9604837  692.5103892   0.5000  -0.5000   0.5000    1.5824551   -1.5824886    1.5825703   0
    8  187.0513423  409.2340867  692.8818597   0.5000  -0.5000   0.5000    1.5824551   -1.5824886    1.5825703   0
    8  188.4388810  410.8915131  694.1667886   0.5000  -0.5000   0.5000    1.5824551   -1.5824886    1.5825703   0
    8  189.5541850  412.5276511  695.0666405   0.5000  -0.5000   0.5000    1.5824551   -1.5824886    1.5825703   0
    8  189.6731796  413.8036271  695.3563240   0.5000  -0.5000   0.5000    1.5824551   -1.5824886    1.5825703   0
    8  188.4469377  414.3460486  696.3585542   0.5000  -0.5000   0.5000    1.5824551   -1.5824886    1.5825703   0
    8  187.3435937  415.2680181  698.1493542   0.5000  -0.5000   0.5000    1.5824551   -1.5824886    1.5825703   0
    8  186.7192438  416.6304299  699.6880948   0.5000  -0.5000   0.5000    1.5824551   -1.5824886    1.5825703   0
    8  185.8753104  417.5335580  700.6685829   0.5000  -0.5000   0.5000    1.5824551   -1.5824886    1.5825703   0
    8  186.0037895  418.2504029  701.1221149   0.5000  -0.5000   0.5000    1.5824551   -1.5824886    1.5825703   0
    8  187.8117007  420.6050437  701.3090641   0.5000  -0.5000   0.5000    1.5824551   -1.5824886    1.5825703   0
    8  190.4929673  426.2003090  702.0838949   0.5000  -0.5000   0.5000    1.5824551   -1.5824886    1.5825703   0
    9   67.4187034  363.8031584  192.5547541  -0.0000   1.0000  -0.0000    0.0001660    3.1647641   -0.0002610   1
    9   69.2294348  363.1360638  193.3257915  -0.0000   1.0000  -0.0000    0.0001660    3.1647641   -0.0002610   1
    9   71.2428465  362.5735941  193.6206950  -0.0000   1.0000  -0.0000    0.0001660    3.1647641   -0.0002610   1
    9   73.1810241  362.4904941  193.4748166  -0.0000   1.0000  -0.0000    0.0001660    3.1647641   -0.0002610   1
    9   74.8174759  362.1172624  193.8225589  -0.0000   1.0000  -0.0000    0.0001660    3.1647641   -0.0002610   1