ITEM: TIMESTEP
0
ITEM: NUMBER OF ATOMS
10219
ITEM: BOX BOUNDS pp pp pp 
0.0 696.302219
0.0 696.531821
0.0 697.557210
ITEM: ATOMS id x y z tbx tby tbz sbx sby sbz loop
    0  100.9174438  301.2523973  119.2862912   0.5000   0.5000   0.5000    1.5815538    1.5800495    1.5821542   1
    0  100.2867455  300.0279828  120.3417156   0.5000   0.5000   0.5000    1.5815538    1.5800495    1.5821542   1
    0   98.3883062  298.6674128  121.4647855   0.5000   0.5000   0.5000    1.5815538    1.5800495    1.5821542   1
    0   96.8559990  298.4181486  122.1495226   0.5000   0.5000   0.5000    1.5815538    1.5800495    1.5821542   1
    0   96.1698820  299.7612448  123.3404836   0.5000   0.5000   0.5000    1.5815538    1.5800495    1.5821542   1
    0   94.9600434  301.0825720  124.5378596   0.5000   0.5000   0.5000    1.5815538    1.5800495    1.5821542   1
    0   93.3041455  302.2592286  124.9697069   0.5000   0.5000   0.5000    1.5815538    1.5800495    1.5821542   1
    0   92.3835586  304.3629265  124.9014742   0.5000   0.5000   0.5000    1.5815538    1.5800495    1.5821542   1
    0   92.1044385  306.6298469  124.0656853   0.5000   0.5000   0.5000    1.5815538    1.5800495    1.5821542   1
    0   92.3095551  308.7917865  122.7556804   0.5000   0.5000   0.5000    1.5815538    1.5800495    1.5821542   1
    0   92.6562702  310.9461109  121.6007051   0.5000   0.5000   0.5000    1.5815538    1.5800495    1.5821542   1
    0   92.7954809  312.1772428  119.8003205   0.5000   0.5000   0.5000    1.5815538    1.5800495    1.5821542   1
    0   93.8092185  312.4135417  117.9282908   0.5000   0.5000   0.5000    1.5815538    1.5800495    1.5821542   1
    0   95.2738532  312.3891699  116.6268937   0.5000   0.5000   0.5000    1.5815538    1.5800495    1.5821542   1
    0   95.7160820  311.7713500  115.0518131   0.5000   0.5000   0.5000    1.5815538    1.5800495    1.5821542   1
    0   96.3098573  310.3149670  113.9865675   0.5000   0.5000   0.5000    1.5815538    1.5800495    1.5821542   1
    0   97.9128181  308.7213808  113.7275894   0.5000   0.5000   0.5000    1.5815538    1.5800495    1.5821542   1
    0   99.5947460  307.0954526  113.6008000   0.5000   0.5000   0.5000    1.5815538    1.5800495    1.5821542   1
    0  100.6167046  305.4193125  114.0710728   0.5000   0.5000   0.5000    1.5815538    1.5800495    1.5821542   1
    0  101.1753863  304.0432197  115.2083333   0.5000   0.5000   0.5000    1.5815538    1.5800495    1.5821542   1
    0  101.7498328  303.1090264  116.5502381   0.5000   0.5000   0.5000    1.5815538    1.5800495    1.5821542   1
    0  101.7714824  302.7187453  117.9324754   0.5000   0.5000   0.5000    1.5815538    1.5800495    1.5821542   1
    0  101.3093170  302.4346321  118.7194713   0.5000   0.5000   0.5000    1.5815538    1.5800495    1.5821542   1
    0  100.9174437  301.2523973  119.2862910   0.5000   0.5000   0.5000    1.5815538    1.5800495    1.5821542   1
    1  480.8027144  565.4877857  582.8299286  -0.5000   0.5000   0.5000   -1.5828185    1.5808522    1.5823655   0
    1  482.2209366  566.3056642  583.5718962  -0.5000   0.5000   0.5000   -1.5828185    1.5808522    1.5823655   0
    1  483.0859737  567.5694884  583.4075169  -0.5000   0.5000   0.5000   -1.5828185    1.5808522    1.5823655   0
    1  483.4583695  569.2570864  584.0213797  -0.5000   0.5000   0.5000   -1.5828185    1.5808522    1.5823655   0
    1  484.3075911  571.1410092  584.8476124  -0.5000   0.5000   0.5000   -1.5828185    1.5808522    1.5823655   0
    1  486.0406158  572.7740059  584.9474071  -0.5000   0.5000   0.5000   -1.5828185    1.5808522    1.5823655   0
    1  487.4888412  574.1420070  584.9562243  -0.5000   0.5000   0.5000   -1.5828185    1.5808522    1.5823655   0
    1  488.2588427  575.2695104  585.8117360  -0.5000   0.5000   0.5000   -1.5828185    1.5808522    1.5823655   0
    1  489.3020870  576.2108477  587.1768180  -0.5000   0.5000   0.5000   -1.5828185    1.5808522    1.5823655   0
    1  490.6458985  577.3492650  588.2063978  -0.5000   0.5000   0.5000   -1.5828185    1.5808522    1.5823655   0
    1  491.9389512  578.9002165  588.8642099  -0.5000   0.5000   0.5000   -1.5828185    1.5808522    1.5823655   0
    1  493.3344808  580.6997921  589.1346024  -0.5000   0.5000   0.5000   -1.5828185    1.5808522    1.5823655   0
    1  494.8135999  581.6678102  589.7231898  -0.5000   0.5000   0.5000   -1.5828185    1.5808522    1.5823655   0
    1  496.1219077  581.3940536  591.3929574  -0.5000   0.5000   0.5000   -1.5828185    1.5808522    1.5823655   0
    1  497.1923728  580.9798448  593.5381788  -0.5000   0.5000   0.5000   -1.5828185    1.5808522    1.5823655   0
    1  498.2488219  581.1277134  595.3302489  -0.5000   0.5000   0.5000   -1.5828185    1.5808522    1.5823655   0
    1  499.5851221  581.9921081  596.2154023  -0.5000   0.5000   0.5000   -1.5828185    1.5808522    1.5823655   0
    1  500.9869862  583.7319720  595.9701682  -0.5000   0.5000   0.5000   -1.5828185    1.5808522    1.5823655   0
    1  502.2613765  585.8216469  595.3605399  -0.5000   0.5000   0.5000   -1.5828185    1.5808522    1.5823655   0
    1  503.6412442  587.4762765  595.1680512  -0.5000   0.5000   0.5000   -1.5828185    1.5808522    1.5823655   0
    1  505.1648997  588.5800348  595.4016144  -0.5000   0.5000   0.5000   -1.5828185    1.5808522    1.5823655   0
    1  506.8127161  589.9240177  595.9285090  -0.5000   0.5000   0.5000   -1.5828185    1.5808522    1.5823655   0
    1  508.7592140  591.6020029  596.1007954  -0.5000   0.5000   0.5000   -1.5828185    1.5808522    1.5823655   0
    1  510.7606394  592.9217229  596.0105162  -0.5000   0.5000   0.5000   -1.5828185    1.5808522    1.5823655   0
    1  511.7288881  593.6421175  596.9445631  -0.5000   0.5000   0.5000   -1.5828185    1.5808522    1.5823655   0
    1  511.4357532  593.5373430  596.8491544  -0.5000   0.5000   0.5000   -1.5828185    1.5808522    1.5823655   0
    1  510.9334049  593.4467492  595.1020550  -0.5000   0.5000   0.5000   -1.5828185    1.5808522    1.5823655   0
    1  510.5659410  594.5977502  594.7522836  -0.5000   0.5000   0.5000   -1.5828185    1.5808522    1.5823655   0
    1  510.5146460  596.8396647  595.2478734  -0.5000   0.5000   0.5000   -1.5828185    1.5808522    1.5823655   0
    1  510.9492415  599.2618466  595.0881296  -0.5000   0.5000   0.5000   -1.5828185    1.5808522    1.5823655   0
    1  511.7486917  601.1934505  594.7142657  -0.5000   0.5000   0.5000   -1.5828185    1.5808522    1.5823655   0
    1  513.5314715  602.3154350  594.3808812  -0.5000   0.5000   0.5000   -1.5828185    1.5808522    1.5823655   0
    1  515.9004252  602.4003839  593.3640619  -0.5000   0.5000   0.5000   -1.5828185    1.5808522    1.5823655   0
    1  516.9107186  602.2012640  592.8959894  -0.5000   0.5000   0.5000   -1.5828185    1.5808522    1.5823655   0
    1  516.8338397  602.9019842  594.4929805  -0.5000   0.5000   0.5000   -1.5828185    1.5808522    1.5823655   0
    1  517.6326743  604.3119986  596.0875767  -0.5000   0.5000   0.5000   -1.5828185    1.5808522    1.5823655   0
    1  518.7990982  606.1188571  596.3628602  -0.5000   0.5000   0.5000   -1.5828185    1.5808522    1.5823655   0
    1  519.4701977  608.3578234  596.0693760  -0.5000   0.5000   0.5000   -1.5828185    1.5808522    1.5823655   0
    1  520.0243155  610.4755002  596.3669002  -0.5000   0.5000   0.5000   -1.5828185    1.5808522    1.5823655   0
    1  520.7609728  612.0043525  597.5474550  -0.5000   0.5000   0.5000   -1.5828185    1.5808522    1.5823655   0
    1  522.2876461  612.9979500  598.6151750  -0.5000   0.5000   0.5000   -1.5828185    1.5808522    1.5823655   0
    1  524.5809824  613.5994374  599.3752493  -0.5000   0.5000   0.5000   -1.5828185    1.5808522    1.5823655   0
    1  526.7299395  614.2112418  599.8378658  -0.5000   0.5000   0.5000   -1.5828185    1.5808522    1.5823655   0
    1  527.9377590  615.4713853  600.1538213  -0.5000   0.5000   0.5000   -1.5828185    1.5808522    1.5823655   0
    1  528.5107700  617.1205909  600.6600616  -0.5000   0.5000   0.5000   -1.5828185    1.5808522    1.5823655   0
    1  529.5093816  618.4052470  600.3517642  -0.5000   0.5000   0.5000   -1.5828185    1.5808522    1.5823655   0
    1  530.1173261  618.8474213  598.9305216  -0.5000   0.5000   0.5000   -1.5828185    1.5808522    1.5823655   0
    1  529.2414026  618.7276446  597.5017523  -0.5000   0.5000   0.5000   -1.5828185    1.5808522    1.5823655   0
    1  528.0484390  619.0305290  596.1981809  -0.5000   0.5000   0.5000   -1.5828185    1.5808522    1.5823655   0
    1  527.5513277  620.4180658  594.9242816  -0.5000   0.5000   0.5000   -1.5828185    1.5808522    1.5823655   0
    1  527.2687019  622.3093284  593.7949446  -0.5000   0.5000   0.5000   -1.5828185    1.5808522    1.5823655   0
    1  526.8997678  624.3307104  592.6518931  -0.5000   0.5000   0.5000   -1.5828185    1.5808522    1.5823655   0
    1  527.2817752  626.8772596  592.1004155  -0.5000   0.5000   0.5000   -1.5828185    1.5808522    1.5823655   0
    1  528.4987297  628.8604402  592.5742177  -0.5000   0.5000   0.5000   -1.5828185    1.5808522    1.5823655   0
    1  529.2952866  630.1449410  593.5835344  -0.5000   0.5000   0.5000   -1.5828185    1.5808522    1.5823655   0
    1  529.7692606  631.7875353  593.9229917  -0.5000   0.5000   0.5000   -1.5828185    1.5808522    1.5823655   0
    1  530.7996423  633.6417393  593.6490724  -0.5000   0.5000   0.5000   -1.5828185    1.5808522    1.5823655   0
    1  531.3924979  635.4333933  594.1575030  -0.5000   0.5000   0.5000   -1.5828185    1.5808522    1.5823655   0
    1  530.5736312  636.4027908  594.6380570  -0.5000   0.5000   0.5000   -1.5828185    1.5808522    1.5823655   0
    1  529.1958528  636.2770420  593.8005018  -0.5000   0.5000   0.5000   -1.5828185    1.5808522    1.5823655   0
    1  528.1875906  635.9043743  591.9163654  -0.5000   0.5000   0.5000   -1.5828185    1.5808522    1.5823655   0
    1  526.9889231  635.8400268  589.9323360  -0.5000   0.5000   0.5000   -1.5828185    1.5808522    1.5823655   0
    1  525.5258067  636.4606048  588.5567386  -0.5000   0.5000   0.5000   -1.5828185    1.5808522    1.5823655   0
    1  524.6984211  637.4491286  587.1751505  -0.5000   0.5000   0.5000   -1.5828185    1.5808522    1.5823655   0
    1  524.1201355  638.5106917  585.4052450  -0.5000   0.5000   0.5000   -1.5828185    1.5808522    1.5823655   0
    1  522.8493910  640.0940900  584.3379657  -0.5000   0.5000   0.5000   -1.5828185    1.5808522    1.5823655   0
    1  521.6289903  641.4282370  584.2074872  -0.5000   0.5000   0.5000   -1.5828185    1.5808522    1.5823655   0
    1  522.1565040  642.3338727  583.7413300  -0.5000   0.5000   0.5000   -1.5828185    1.5808522    1.5823655   0
    1  523.8545620  643.8263763  582.9075193  -0.5000   0.5000   0.5000   -1.5828185    1.5808522    1.5823655   0
    1  525.6168102  645.0311059  582.7014335  -0.5000   0.5000   0.5000   -1.5828185    1.5808522    1.5823655   0
    1  527.5189745  644.8930992  583.5757179  -0.5000   0.5000   0.5000   -1.5828185    1.5808522    1.5823655   0
    1  528.7094098  644.3245561  585.1299978  -0.5000   0.5000   0.5000   -1.5828185    1.5808522    1.5823655   0
    1  528.6565255  644.9423613  586.3153268  -0.5000   0.5000   0.5000   -1.5828185    1.5808522    1.5823655   0
    1  528.2276359  646.3833556  585.9033164  -0.5000   0.5000   0.5000   -1.5828185    1.5808522    1.5823655   0
    1  527.9832082  647.5852678  584.0770715  -0.5000   0.5000   0.5000   -1.5828185    1.5808522    1.5823655   0
    1  527.8960139  649.2010009  582.5870164  -0.5000   0.5000   0.5000   -1.5828185    1.5808522    1.5823655   0
    1  527.7743400  650.8497103  581.1710296  -0.5000   0.5000   0.5000   -1.5828185    1.5808522    1.5823655   0
    1  527.6728318  652.2468537  579.3060230  -0.5000   0.5000   0.5000   -1.5828185    1.5808522    1.5823655   0
    1  527.3648235  654.0833858  577.9836839  -0.5000   0.5000   0.5000   -1.5828185    1.5808522    1.5823655   0
    1  526.4909293  655.2979203  576.6542302  -0.5000   0.5000   0.5000   -1.5828185    1.5808522    1.5823655   0
    1  525.4567892  655.2158626  574.7628495  -0.5000   0.5000   0.5000   -1.5828185    1.5808522    1.5823655   0
    1  524.3967681  654.9346556  572.9909799  -0.5000   0.5000   0.5000   -1.5828185    1.5808522    1.5823655   0
    1  522.9810390  655.0042204  571.5110876  -0.5000   0.5000   0.5000   -1.5828185    1.5808522    1.5823655   0
    1  520.9324599  655.0614419  570.3087926  -0.5000   0.5000   0.5000   -1.5828185    1.5808522    1.5823655   0
    1  519.3434184  655.6339191  569.1879127  -0.5000   0.5000   0.5000   -1.5828185    1.5808522    1.5823655   0
    1  518.7780302  656.8745506  567.8995131  -0.5000   0.5000   0.5000   -1.5828185    1.5808522    1.5823655   0
    1  518.2413486  657.6553400  566.1496632  -0.5000   0.5000   0.5000   -1.5828185    1.5808522    1.5823655   0
    1  517.7796827  658.4356149  563.9542208  -0.5000   0.5000   0.5000   -1.5828185    1.5808522    1.5823655   0
    1  517.9029371  660.3876160  562.1738749  -0.5000   0.5000   0.5000   -1.5828185    1.5808522    1.5823655   0
    1  518.9957347  662.5220715  561.2131876  -0.5000   0.5000   0.5000   -1.5828185    1.5808522    1.5823655   0
    1  520.4237785  664.1612503  561.2842058  -0.5000   0.5000   0.5000   -1.5828185    1.5808522    1.5823655   0
    1  521.1505948  665.4205856  561.1592898  -0.5000   0.5000   0.5000   -1.5828185    1.5808522    1.5823655   0
    1  521.4813343  666.3823847  559.6506778  -0.5000   0.5000   0.5000   -1.5828185    1.5808522    1.5823655   0
    1  522.0288121  668.0019565  558.2584532  -0.5000   0.5000   0.5000   -1.5828185    1.5808522    1.5823655   0
    1  522.9243242  669.9208270  558.2464817  -0.5000   0.5000   0.5000   -1.5828185    1.5808522    1.5823655   0
    1  523.8133206  671.8079862  559.0737113  -0.5000   0.5000   0.5000   -1.5828185    1.5808522    1.5823655   0
    1  524.6133953  673.8803535  559.8064897  -0.5000   0.5000   0.5000   -1.5828185    1.5808522    1.5823655   0
    1  525.6141181  675.7680922  560.3526421  -0.5000   0.5000   0.5000   -1.5828185    1.5808522    1.5823655   0
    1  526.8644023  677.7419125  560.7602014  -0.5000   0.5000   0.5000   -1.5828185    1.5808522    1.5823655   0
    1  528.1382445  679.5578134  561.3558687  -0.5000   0.5000   0.5000   -1.5828185    1.5808522    1.5823655   0
    1  529.5553981  680.4622574  561.9970836  -0.5000   0.5000   0.5000   -1.5828185    1.5808522    1.5823655   0
    1  531.4937732  680.8445482  562.2942152  -0.5000   0.5000   0.5000   -1.5828185    1.5808522    1.5823655   0
    1  533.2662563  681.4825228  563.0705343  -0.5000   0.5000   0.5000   -1.5828185    1.5808522    1.5823655   0
    1  534.3625427  681.7707447  564.8213640  -0.5000   0.5000   0.5000   -1.5828185    1.5808522    1.5823655   0
    1  535.3804164  681.2464279  567.2170886  -0.5000   0.5000   0.5000   -1.5828185    1.5808522    1.5823655   0
    1  536.0071988  680.2994587  569.3287958  -0.5000   0.5000   0.5000   -1.5828185    1.5808522    1.5823655   0
    1  535.2990049  678.9507893  570.7237121  -0.5000   0.5000   0.5000   -1.5828185    1.5808522    1.5823655   0
    1  534.1949325  677.4322932  572.0032958  -0.5000   0.5000   0.5000   -1.5828185    1.5808522    1.5823655   0
    1  534.0220080  676.2686740  573.8108562  -0.5000   0.5000   0.5000   -1.5828185    1.5808522    1.5823655   0
    1  534.1306040  675.5668070  576.0657412  -0.5000   0.5000   0.5000   -1.5828185    1.5808522    1.5823655   0
    1  533.7533869  674.7886338  578.2303757  -0.5000   0.5000   0.5000   -1.5828185    1.5808522    1.5823655   0
    1  533.4112758  673.2670906  580.1824062  -0.5000   0.5000   0.5000   -1.5828185    1.5808522    1.5823655   0
    1  533.1563145  671.3683002  581.8293240  -0.5000   0.5000   0.5000   -1.5828185    1.5808522    1.5823655   0
    1  532.4140542  669.7205327  582.7804688  -0.5000   0.5000   0.5000   -1.5828185    1.5808522    1.5823655   0
    1  531.7016450  667.8351102  583.2148373  -0.5000   0.5000   0.5000   -1.5828185    1.5808522    1.5823655   0
    1  531.7884937  665.9652030  584.5774682  -0.5000   0.5000   0.5000   -1.5828185    1.5808522    1.5823655   0
    1  532.5451543  664.9257338  587.1452260  -0.5000   0.5000   0.5000   -1.5828185    1.5808522    1.5823655   0
    1  533.1675715  664.0038908  589.0579118  -0.5000   0.5000   0.5000   -1.5828185    1.5808522    1.5823655   0
    1  532.9315031  662.2743731  589.6476878  -0.5000   0.5000   0.5000   -1.5828185    1.5808522    1.5823655   0
    1  532.2174102  659.8744180  590.0182874  -0.5000   0.5000   0.5000   -1.5828185    1.5808522    1.5823655   0
    1  532.2845120  657.6470471  590.3785643  -0.5000   0.5000   0.5000   -1.5828185    1.5808522    1.5823655   0
    1  533.4185162  656.1552213  590.8551868  -0.5000   0.5000   0.5000   -1.5828185    1.5808522    1.5823655   0
    1  534.4970679  654.6494689  591.9760250  -0.5000   0.5000   0.5000   -1.5828185    1.5808522    1.5823655   0
    1  534.9966468  653.1290519  593.5740849  -0.5000   0.5000   0.5000   -1.5828185    1.5808522    1.5823655   0
    1  535.3784227  652.3112684  595.6565903  -0.5000   0.5000   0.5000   -1.5828185    1.5808522    1.5823655   0
    1  535.7941683  651.3147146  597.5468314  -0.5000   0.5000   0.5000   -1.5828185    1.5808522    1.5823655   0
    1  535.8901019  649.6298053  598.4775457  -0.5000   0.5000   0.5000   -1.5828185    1.5808522    1.5823655   0
    1  535.8118992  647.5890736  598.5220668  -0.5000   0.5000   0.5000   -1.5828185    1.5808522    1.5823655   0
    1  536.3586213  645.5841828  598.4108458  -0.5000   0.5000   0.5000   -1.5828185    1.5808522    1.5823655   0
    1  537.6059595  644.0758064  599.0704189  -0.5000   0.5000   0.5000   -1.5828185    1.5808522    1.5823655   0
    1  538.9470939  642.9930513  600.4208596  -0.5000   0.5000   0.5000   -1.5828185    1.5808522    1.5823655   0
    1  540.0524138  642.3169359  602.0221962  -0.5000   0.5000   0.5000   -1.5828185    1.5808522    1.5823655   0
    1  540.5617516  641.6143253  603.4920778  -0.5000   0.5000   0.5000   -1.5828185    1.5808522    1.5823655   0
    1  540.3810265  639.7812237  604.2534381  -0.5000   0.5000   0.5000   -1.5828185    1.5808522    1.5823655   0
    1  539.6053976  637.0085860  604.4796327  -0.5000   0.5000   0.5000   -1.5828185    1.5808522    1.5823655   0
    1  538.5029052  635.7636360  605.0829093  -0.5000   0.5000   0.5000   -1.5828185    1.5808522    1.5823655   0
    1  538.7576298  636.7158640  605.3392486  -0.5000   0.5000   0.5000   -1.5828185    1.5808522    1.5823655   0
    1  540.8787325  637.7289719  604.6070924  -0.5000   0.5000   0.5000   -1.5828185    1.5808522    1.5823655   0
    1  543.0616895  638.4380537  604.2797059  -0.5000   0.5000   0.5000   -1.5828185    1.5808522    1.5823655   0
    1  544.7056258  639.2222309  605.1232029  -0.5000   0.5000   0.5000   -1.5828185    1.5808522    1.5823655   0
    1  546.3564207  639.6778965  606.4078549  -0.5000   0.5000   0.5000   -1.5828185    1.5808522    1.5823655   0
    1  548.0241192  640.2878812  607.3274989  -0.5000   0.5000   0.5000   -1.5828185    1.5808522    1.5823655   0
    1  549.9756982  641.1846898  608.2825324  -0.5000   0.5000   0.5000   -1.5828185    1.5808522    1.5823655   0
    1  552.3699961  641.4438284  609.2318806  -0.5000   0.5000   0.5000   -1.5828185    1.5808522    1.5823655   0
    1  554.3316673  641.2595123  609.5770836  -0.5000   0.5000   0.5000   -1.5828185    1.5808522    1.5823655   0
    1  555.9856390  642.0942990  609.5959597  -0.5000   0.5000   0.5000   -1.5828185    1.5808522    1.5823655   0
    1  557.7024173  644.3022364  609.3114470  -0.5000   0.5000   0.5000   -1.5828185    1.5808522    1.5823655   0
    1  558.2670963  646.1901362  608.6444875  -0.5000   0.5000   0.5000   -1.5828185    1.5808522    1.5823655   0
    1  557.4105729  646.8286430  607.3173333  -0.5000   0.5000   0.5000   -1.5828185    1.5808522    1.5823655   0
    1  556.9333084  647.6530582  605.7414630  -0.5000   0.5000   0.5000   -1.5828185    1.5808522    1.5823655   0
    1  557.3186464  649.1649488  604.9687057  -0.5000   0.5000   0.5000   -1.5828185    1.5808522    1.5823655   0
    1  556.9924677  650.7256524  604.5257764  -0.5000   0.5000   0.5000   -1.5828185    1.5808522    1.5823655   0
    1  555.9969236  651.7067098  603.3688384  -0.5000   0.5000   0.5000   -1.5828185    1.5808522    1.5823655   0
    1  555.3096358  651.8377638  601.6295412  -0.5000   0.5000   0.5000   -1.5828185    1.5808522    1.5823655   0
    1  556.0641961  653.1712633  600.3016618  -0.5000   0.5000   0.5000   -1.5828185    1.5808522    1.5823655   0
    1  559.1695654  657.1387590  599.7792639  -0.5000   0.5000   0.5000   -1.5828185    1.5808522    1.5823655   0
    2  577.7351513   23.2377096  515.4776263   0.5000  -0.5000   0.5000    1.5820020   -1.5844136    1.5819911   1
    2  576.3703549   23.3687682  514.3619572   0.5000  -0.5000   0.5000    1.5820020   -1.5844136    1.5819911   1
    2  575.0134388   22.7734820  512.8680826   0.5000  -0.5000   0.5000    1.5820020   -1.5844136    1.5819911   1
    2  573.1402879   21.6258717  511.8037863   0.5000  -0.5000   0.5000    1.5820020   -1.5844136    1.5819911   1
    2  570.5597598   20.6980692  511.3158515   0.5000  -0.5000   0.5000    1.5820020   -1.5844136    1.5819911   1
    2  567.9636132   20.1267911  511.8619397   0.5000  -0.5000   0.5000    1.5820020   -1.5844136    1.5819911   1
    2  565.5667540   19.7426440  513.4229919   0.5000  -0.5000   0.5000    1.5820020   -1.5844136    1.5819911   1
    2  564.0926372   19.3704455  515.5110686   0.5000  -0.5000   0.5000    1.5820020   -1.5844136    1.5819911   1
    2  563.4543471   19.2728393  517.7075810   0.5000  -0.5000   0.5000    1.5820020   -1.5844136    1.5819911   1
    2  563.1612598   20.3307145  519.3530608   0.5000  -0.5000   0.5000    1.5820020   -1.5844136    1.5819911   1
    2  563.5546800   22.0547629  520.4372716   0.5000  -0.5000   0.5000    1.5820020   -1.5844136    1.5819911   1
    2  564.4172422   23.7628714  521.3505755   0.5000  -0.5000   0.5000    1.5820020   -1.5844136    1.5819911   1
    2  565.2293338   25.8455278  522.0301383   0.5000  -0.5000   0.5000    1.5820020   -1.5844136    1.5819911   1
    2  565.8585730   27.4796638  522.0719275   0.5000  -0.5000   0.5000    1.5820020   -1.5844136    1.5819911   1
    2  566.8417702   27.6829626  521.2097848   0.5000  -0.5000   0.5000    1.5820020   -1.5844136    1.5819911   1
    2  569.0132944   27.5322322  520.4264238   0.5000  -0.5000   0.5000    1.5820020   -1.5844136    1.5819911   1
    2  572.0063215   27.7254067  519.9721758   0.5000  -0.5000   0.5000    1.5820020   -1.5844136    1.5819911   1
    2  573.9386852   27.8311431  518.5389051   0.5000  -0.5000   0.5000    1.5820020   -1.5844136    1.5819911   1
    2  574.9189436   27.2912842  516.3092789   0.5000  -0.5000   0.5000    1.5820020   -1.5844136    1.5819911   1
    2  576.2486143   26.0308211  514.8664735   0.5000  -0.5000   0.5000    1.5820020   -1.5844136    1.5819911   1
    2  577.3502360   24.7427616  514.8290861   0.5000  -0.5000   0.5000    1.5820020   -1.5844136    1.5819911   1
    2  577.7351513   23.2377096  515.4776264   0.5000  -0.5000   0.5000    1.5820020   -1.5844136    1.5819911   1
    3  600.8797858  139.4462857  627.8459999  -0.5000   0.5000   0.5000   -1.5828185    1.5808522    1.5823655   0
    3  603.0741121  139.9223958  628.7445125  -0.5000   0.5000   0.5000   -1.5828185    1.5808522    1.5823655   0
    3  605.0629431  141.4189642  628.5179196  -0.5000   0.5000   0.5000   -1.5828185    1.5808522    1.5823655   0
    3  606.0758034  143.3562537  627.3953848  -0.5000   0.5000   0.5000   -1.5828185    1.5808522    1.5823655   0
    3  605.9947106  145.0849290  626.0871283  -0.5000   0.5000   0.5000   -1.5828185    1.5808522    1.5823655   0
    3  605.8430884  147.2718729  625.3417313  -0.5000   0.5000   0.5000   -1.5828185    1.5808522    1.5823655   0
    3  606.2195639  149.8372648  624.9204435  -0.5000   0.5000   0.5000   -1.5828185    1.5808522    1.5823655   0
    3  606.4804211  152.4120769  624.2696779  -0.5000   0.5000   0.5000   -1.5828185    1.5808522    1.5823655   0
    3  605.8036583  154.5876307  623.3040730  -0.5000   0.5000   0.5000   -1.5828185    1.5808522    1.5823655   0
    3  604.5071428  155.7649470  622.0685048  -0.5000   0.5000   0.5000   -1.5828185    1.5808522    1.5823655   0
    3  603.6100894  156.7706510  621.2215170  -0.5000   0.5000   0.5000   -1.5828185    1.5808522    1.5823655   0
    3  603.5565994  159.0989396  621.1757481  -0.5000   0.5000   0.5000   -1.5828185    1.5808522    1.5823655   0
    3  604.3088696  161.7407300  621.5112223  -0.5000   0.5000   0.5000   -1.5828185    1.5808522    1.5823655   0
    3  605.4588944  163.6112771  621.8412871  -0.5000   0.5000   0.5000   -1.5828185    1.5808522    1.5823655   0
    3  606.6927789  165.2889224  622.0710807  -0.5000   0.5000   0.5000   -1.5828185    1.5808522    1.5823655   0
    3  607.8394464  167.0899401  622.5098213  -0.5000   0.5000   0.5000   -1.5828185    1.5808522    1.5823655   0
    3  609.0046083  169.1101993  623.0946726  -0.5000   0.5000   0.5000   -1.5828185    1.5808522    1.5823655   0
    3  610.5011209  170.4919348  622.8598514  -0.5000   0.5000   0.5000   -1.5828185    1.5808522    1.5823655   0
    3  611.7109779  171.5558270  621.8349669  -0.5000   0.5000   0.5000   -1.5828185    1.5808522    1.5823655   0
    3  612.4295476  173.5461291  621.0112390  -0.5000   0.5000   0.5000   -1.5828185    1.5808522    1.5823655   0
    3  613.1453465  175.6752613  620.3879924  -0.5000   0.5000   0.5000   -1.5828185    1.5808522    1.5823655   0
    3  614.2392617  177.3836225  619.8891761  -0.5000   0.5000   0.5000   -1.5828185    1.5808522    1.5823655   0
    3  615.8016659  179.0251950  619.9206155  -0.5000   0.5000   0.5000   -1.5828185    1.5808522    1.5823655   0
    3  617.8555464  179.8119112  620.2090230  -0.5000   0.5000   0.5000   -1.5828185    1.5808522    1.5823655   0
    3  619.8911364  179.7845945  619.6593563  -0.5000   0.5000   0.5000   -1.5828185    1.5808522    1.5823655   0
    3  621.6234504  180.0829945  618.1972571  -0.5000   0.5000   0.5000   -1.5828185    1.5808522    1.5823655   0
    3  624.0332302  180.7822064  616.9006587  -0.5000   0.5000   0.5000   -1.5828185    1.5808522    1.5823655   0
    4  399.0899841  361.2692857  591.8627222  -0.5000  -0.5000  -0.5000   -1.5815538   -1.5800495   -1.5821542   0
    4  400.5330118  361.9480128  589.8912080  -0.5000  -0.5000  -0.5000   -1.5815538   -1.5800495   -1.5821542   0
    4  401.8845512  362.1777130  588.0926369  -0.5000  -0.5000  -0.5000   -1.5815538   -1.5800495   -1.5821542   0
    4  403.6161092  362.9355847  587.2075814  -0.5000  -0.5000  -0.5000   -1.5815538   -1.5800495   -1.5821542   0
    4  405.9457041  363.4913525  587.1983041  -0.5000  -0.5000  -0.5000   -1.5815538   -1.5800495   -1.5821542   0
    4  407.8421156  362.9082992  587.7258700  -0.5000  -0.5000  -0.5000   -1.5815538   -1.5800495   -1.5821542   0
    4  409.0344647  361.2305454  588.5165706  -0.5000  -0.5000  -0.5000   -1.5815538   -1.5800495   -1.5821542   0
    4  410.6231828  359.2472933  588.5661725  -0.5000  -0.5000  -0.5000   -1.5815538   -1.5800495   -1.5821542   0
    4  413.0604762  358.1753354  588.1869278  -0.5000  -0.5000  -0.5000   -1.5815538   -1.5800495   -1.5821542   0
    4  415.9372953  358.1014750  588.2637674  -0.5000  -0.5000  -0.5000   -1.5815538   -1.5800495   -1.5821542   0
    4  418.7031637  357.8922221  588.2442153  -0.5000  -0.5000  -0.5000   -1.5815538   -1.5800495   -1.5821542   0
    4  421.1062921  357.1364224  587.8875108  -0.5000  -0.5000  -0.5000   -1.5815538   -1.5800495   -1.5821542   0
    4  423.0972946  356.6472855  587.3364079  -0.5000  -0.5000  -0.5000   -1.5815538   -1.5800495   -1.5821542   0
    4  425.0645459  356.4637903  586.6355588  -0.5000  -0.5000  -0.5000   -1.5815538   -1.5800495   -1.5821542   0
    4  427.3690954  355.8458174  585.8989407  -0.5000  -0.5000  -0.5000   -1.5815538   -1.5800495   -1.5821542   0
    4  429.8342385  354.9556853  584.9834480  -0.5000  -0.5000  -0.5000   -1.5815538   -1.5800495   -1.5821542   0
    4  431.9469993  354.3051565  583.9606426  -0.5000  -0.5000  -0.5000   -1.5815538   -1.5800495   -1.5821542   0
    4  433.5790523  353.9898761  583.1537829  -0.5000  -0.5000  -0.5000   -1.5815538   -1.5800495   -1.5821542   0
    4  435.0802569  353.4389532  583.0641075  -0.5000  -0.5000  -0.5000   -1.5815538   -1.5800495   -1.5821542   0
    4  436.2785135  351.7904438  583.7495826  -0.5000  -0.5000  -0.5000   -1.5815538   -1.5800495   -1.5821542   0
    4  437.5004045  349.8917654  584.1385950  -0.5000  -0.5000  -0.5000   -1.5815538   -1.5800495   -1.5821542   0
    4  438.8319479  348.4754565  582.9372001  -0.5000  -0.5000  -0.5000   -1.5815538   -1.5800495   -1.5821542   0
    4  439.7228404  347.2716702  581.1922111  -0.5000  -0.5000  -0.5000   -1.5815538   -1.5800495   -1.5821542   0
    4  440.2740909  347.6863132  580.5600313  -0.5000  -0.5000  -0.5000   -1.5815538   -1.5800495   -1.5821542   0
    4  440.7722615  350.0454323  580.2719210  -0.5000  -0.5000  -0.5000   -1.5815538   -1.5800495   -1.5821542   0
    4  441.2757628  352.4573396  579.9954221  -0.5000  -0.5000  -0.5000   -1.5815538   -1.5800495   -1.5821542   0
    4  441.6170001  353.9089882  579.4928539  -0.5000  -0.5000  -0.5000   -1.5815538   -1.5800495   -1.5821542   0
    4  442.5497118  354.2920370  578.7003987  -0.5000  -0.5000  -0.5000   -1.5815538   -1.5800495   -1.5821542   0
    4  444.4216499  353.8108935  578.7668667  -0.5000  -0.5000  -0.5000   -1.5815538   -1.5800495   -1.5821542   0
    4  446.2166937  353.1059542  578.7717507  -0.5000  -0.5000  -0.5000   -1.5815538   -1.5800495   -1.5821542   0