ITEM: TIMESTEP
0
ITEM: NUMBER OF ATOMS
11409
ITEM: BOX BOUNDS pp pp pp 
0.0 696.435040
0.0 696.583218
0.0 697.462357
ITEM: ATOMS id x y z tbx tby tbz sbx sby sbz loop
    0  313.7650000  579.7645715  243.7405001   0.5000   0.5000  -0.5000    1.5820351    1.5837498   -1.5822643   0
    0  312.2593899  580.7529138  245.2000494   0.5000   0.5000  -0.5000    1.5820351    1.5837498   -1.5822643   0
    0  310.6588060  581.7369549  245.7761287   0.5000   0.5000  -0.5000    1.5820351    1.5837498   -1.5822643   0
    0  308.7083891  582.6026628  245.4538156   0.5000   0.5000  -0.5000    1.5820351    1.5837498   -1.5822643   0
    0  306.4916539  583.3639108  244.5289043   0.5000   0.5000  -0.5000    1.5820351    1.5837498   -1.5822643   0
    0  304.3764956  584.2456206  243.6042039   0.5000   0.5000  -0.5000    1.5820351    1.5837498   -1.5822643   0
    0  302.1907057  585.1194263  242.9088352   0.5000   0.5000  -0.5000    1.5820351    1.5837498   -1.5822643   0
    0  300.2250775  585.9014345  242.0406127   0.5000   0.5000  -0.5000    1.5820351    1.5837498   -1.5822643   0
    0  298.8867056  587.1339829  241.0795544   0.5000   0.5000  -0.5000    1.5820351    1.5837498   -1.5822643   0
    0  298.4007241  589.5741684  240.5518006   0.5000   0.5000  -0.5000    1.5820351    1.5837498   -1.5822643   0
    0  298.5274670  593.0463808  240.2256874   0.5000   0.5000  -0.5000    1.5820351    1.5837498   -1.5822643   0
    0  298.5326082  596.0043794  239.8230747   0.5000   0.5000  -0.5000    1.5820351    1.5837498   -1.5822643   0
    0  298.0043488  597.7681952  239.4555889   0.5000   0.5000  -0.5000    1.5820351    1.5837498   -1.5822643   0
    0  296.7593928  599.3235714  239.2168214   0.5000   0.5000  -0.5000    1.5820351    1.5837498   -1.5822643   0
    1  501.2838572  525.3121428   13.6987070   0.5000  -0.5000  -0.5000    1.5820886   -1.5809169   -1.5826918   0
    1  500.6477680  527.0277644   14.1204706   0.5000  -0.5000  -0.5000    1.5820886   -1.5809169   -1.5826918   0
    1  501.0405512  528.6185632   13.0965891   0.5000  -0.5000  -0.5000    1.5820886   -1.5809169   -1.5826918   0
    1  502.4392311  529.9935709   11.8959182   0.5000  -0.5000  -0.5000    1.5820886   -1.5809169   -1.5826918   0
    1  503.5856952  531.6317520   11.0357868   0.5000  -0.5000  -0.5000    1.5820886   -1.5809169   -1.5826918   0
    1  503.5089902  533.7726039   10.2846301   0.5000  -0.5000  -0.5000    1.5820886   -1.5809169   -1.5826918   0
    1  502.3212833  535.5889388    9.4052600   0.5000  -0.5000  -0.5000    1.5820886   -1.5809169   -1.5826918   0
    1  500.6593870  536.4340654    8.1761470   0.5000  -0.5000  -0.5000    1.5820886   -1.5809169   -1.5826918   0
    1  499.5730814  536.9741405    6.5442026   0.5000  -0.5000  -0.5000    1.5820886   -1.5809169   -1.5826918   0
    1  499.3165307  538.4790379    5.0209744   0.5000  -0.5000  -0.5000    1.5820886   -1.5809169   -1.5826918   0
    1  499.3300995  541.0106026    4.3838671   0.5000  -0.5000  -0.5000    1.5820886   -1.5809169   -1.5826918   0
    1  499.1217351  542.8626111    4.0069386   0.5000  -0.5000  -0.5000    1.5820886   -1.5809169   -1.5826918   0
    1  498.8604306  543.6798389    2.8717960   0.5000  -0.5000  -0.5000    1.5820886   -1.5809169   -1.5826918   0
    1  499.1156076  544.6569319    1.2222184   0.5000  -0.5000  -0.5000    1.5820886   -1.5809169   -1.5826918   0
    1  498.9903825  545.8553879    0.0391241   0.5000  -0.5000  -0.5000    1.5820886   -1.5809169   -1.5826918   0
    1  497.9897226  546.3054787   -0.8451146   0.5000  -0.5000  -0.5000    1.5820886   -1.5809169   -1.5826918   0
    1  496.8127719  546.3185633   -1.8430393   0.5000  -0.5000  -0.5000    1.5820886   -1.5809169   -1.5826918   0
    1  495.4844460  546.9405333   -2.4680236   0.5000  -0.5000  -0.5000    1.5820886   -1.5809169   -1.5826918   0
    1  494.4408461  548.1857800   -3.2191147   0.5000  -0.5000  -0.5000    1.5820886   -1.5809169   -1.5826918   0
    1  493.6452093  549.4524156   -4.6122286   0.5000  -0.5000  -0.5000    1.5820886   -1.5809169   -1.5826918   0
    1  492.5588526  550.7945665   -5.9393179   0.5000  -0.5000  -0.5000    1.5820886   -1.5809169   -1.5826918   0
    1  491.8409403  552.4034677   -6.9988628   0.5000  -0.5000  -0.5000    1.5820886   -1.5809169   -1.5826918   0
    1  492.2377206  553.8746627   -8.1429525   0.5000  -0.5000  -0.5000    1.5820886   -1.5809169   -1.5826918   0
    1  493.4781764  555.6211554   -8.9313136   0.5000  -0.5000  -0.5000    1.5820886   -1.5809169   -1.5826918   0
    1  494.9380773  557.4707485   -9.6042721   0.5000  -0.5000  -0.5000    1.5820886   -1.5809169   -1.5826918   0
    1  496.6586309  558.9069180  -10.0076161   0.5000  -0.5000  -0.5000    1.5820886   -1.5809169   -1.5826918   0
    1  498.0705472  559.9968363   -9.1480281   0.5000  -0.5000  -0.5000    1.5820886   -1.5809169   -1.5826918   0
    1  497.6600203  560.1581022   -8.7925936   0.5000  -0.5000  -0.5000    1.5820886   -1.5809169   -1.5826918   0
    1  495.4125517  559.7758051  -10.0012404   0.5000  -0.5000  -0.5000    1.5820886   -1.5809169   -1.5826918   0
    1  493.1061903  560.0741015  -11.5692636   0.5000  -0.5000  -0.5000    1.5820886   -1.5809169   -1.5826918   0
    1  491.7901313  560.7215430  -13.1731349   0.5000  -0.5000  -0.5000    1.5820886   -1.5809169   -1.5826918   0
    1  490.8456498  561.8627504  -14.0344551   0.5000  -0.5000  -0.5000    1.5820886   -1.5809169   -1.5826918   0
    1  489.5765208  564.6584549  -13.5804542   0.5000  -0.5000  -0.5000    1.5820886   -1.5809169   -1.5826918   0
    2  517.3419989  471.1018096  293.7699645   1.0000  -0.0000  -0.0000    3.1645834   -0.0007709   -0.0003410   1
    2  517.6152576  472.8838386  294.4359167   1.0000  -0.0000  -0.0000    3.1645834   -0.0007709   -0.0003410   1
    2  517.7846796  474.7526845  296.1341447   1.0000  -0.0000  -0.0000    3.1645834   -0.0007709   -0.0003410   1
    2  517.5515001  475.4087278  297.8043505   1.0000  -0.0000  -0.0000    3.1645834   -0.0007709   -0.0003410   1
    2  516.7457707  474.7070522  299.2438769   1.0000  -0.0000  -0.0000    3.1645834   -0.0007709   -0.0003410   1
    2  515.3751357  473.5172932  299.7990078   1.0000  -0.0000  -0.0000    3.1645834   -0.0007709   -0.0003410   1
    2  514.2757498  472.2231056  298.8820315   1.0000  -0.0000  -0.0000    3.1645834   -0.0007709   -0.0003410   1
    2  513.6502802  470.6323359  297.0906076   1.0000  -0.0000  -0.0000    3.1645834   -0.0007709   -0.0003410   1
    2  513.5105605  469.3958319  295.0825823   1.0000  -0.0000  -0.0000    3.1645834   -0.0007709   -0.0003410   1
    2  514.2905730  469.1648594  293.4867680   1.0000  -0.0000  -0.0000    3.1645834   -0.0007709   -0.0003410   1
    2  515.8758828  469.2399186  293.2184035   1.0000  -0.0000  -0.0000    3.1645834   -0.0007709   -0.0003410   1
    2  516.9135520  469.5010512  293.6188748   1.0000  -0.0000  -0.0000    3.1645834   -0.0007709   -0.0003410   1
    2  517.3419989  471.1018096  293.7699644   1.0000  -0.0000  -0.0000    3.1645834   -0.0007709   -0.0003410   1
    3  519.7521011  251.9477024  191.0272143  -0.0000  -0.0000   1.0000    0.0004597   -0.0036038    3.1646152   0
    3  522.7616553  251.1898074  190.2894082  -0.0000  -0.0000   1.0000    0.0004597   -0.0036038    3.1646152   0
    3  525.3467792  251.0605740  189.4944791  -0.0000  -0.0000   1.0000    0.0004597   -0.0036038    3.1646152   0
    3  527.2700415  250.7876656  188.3836799  -0.0000  -0.0000   1.0000    0.0004597   -0.0036038    3.1646152   0
    3  529.2739170  250.1766852  187.8012007  -0.0000  -0.0000   1.0000    0.0004597   -0.0036038    3.1646152   0
    3  531.5542481  250.6908475  187.2759989  -0.0000  -0.0000   1.0000    0.0004597   -0.0036038    3.1646152   0
    3  533.6432294  252.2016976  186.0723970  -0.0000  -0.0000   1.0000    0.0004597   -0.0036038    3.1646152   0
    3  535.3571976  253.0192699  185.5817579  -0.0000  -0.0000   1.0000    0.0004597   -0.0036038    3.1646152   0
    3  536.8885507  253.6632834  186.0220608  -0.0000  -0.0000   1.0000    0.0004597   -0.0036038    3.1646152   0
    3  538.8454304  254.7097524  186.1700664  -0.0000  -0.0000   1.0000    0.0004597   -0.0036038    3.1646152   0
    3  541.1606919  254.8748685  185.8422748  -0.0000  -0.0000   1.0000    0.0004597   -0.0036038    3.1646152   0
    3  543.2066135  253.9259944  185.2160951  -0.0000  -0.0000   1.0000    0.0004597   -0.0036038    3.1646152   0
    3  545.1794484  252.8358671  184.5904976  -0.0000  -0.0000   1.0000    0.0004597   -0.0036038    3.1646152   0
    3  546.8935308  251.9237743  184.0166495  -0.0000  -0.0000   1.0000    0.0004597   -0.0036038    3.1646152   0
    3  548.2303069  251.1387794  183.8323180  -0.0000  -0.0000   1.0000    0.0004597   -0.0036038    3.1646152   0
    3  549.9642893  250.4990904  184.4018442  -0.0000  -0.0000   1.0000    0.0004597   -0.0036038    3.1646152   0
    3  551.9222410  249.8525108  184.4599737  -0.0000  -0.0000   1.0000    0.0004597   -0.0036038    3.1646152   0
    3  553.8966135  249.1477491  183.7432239  -0.0000  -0.0000   1.0000    0.0004597   -0.0036038    3.1646152   0
    3  556.0589338  248.3510134  182.9740254  -0.0000  -0.0000   1.0000    0.0004597   -0.0036038    3.1646152   0
    3  557.9441495  247.7973204  182.0954606  -0.0000  -0.0000   1.0000    0.0004597   -0.0036038    3.1646152   0
    3  559.2942017  248.1864873  181.6055561  -0.0000  -0.0000   1.0000    0.0004597   -0.0036038    3.1646152   0
    3  560.4501364  249.3837568  181.6381484  -0.0000  -0.0000   1.0000    0.0004597   -0.0036038    3.1646152   0
    3  561.6334220  250.9405193  181.4786027  -0.0000  -0.0000   1.0000    0.0004597   -0.0036038    3.1646152   0
    3  562.5910008  252.3602361  180.3494654  -0.0000  -0.0000   1.0000    0.0004597   -0.0036038    3.1646152   0
    3  563.2524457  253.9351284  178.6303590  -0.0000  -0.0000   1.0000    0.0004597   -0.0036038    3.1646152   0
    3  563.7235323  256.5195338  177.2622143  -0.0000  -0.0000   1.0000    0.0004597   -0.0036038    3.1646152   0
    3  564.2171408  259.2467889  176.3340160  -0.0000  -0.0000   1.0000    0.0004597   -0.0036038    3.1646152   0
    3  565.0763950  261.3710184  176.0561949  -0.0000  -0.0000   1.0000    0.0004597   -0.0036038    3.1646152   0
    3  566.3016344  263.3025902  175.8416432  -0.0000  -0.0000   1.0000    0.0004597   -0.0036038    3.1646152   0
    3  567.5692183  265.2897619  174.6824127  -0.0000  -0.0000   1.0000    0.0004597   -0.0036038    3.1646152   0
    4  683.2575024    0.2403041  146.5441352  -0.5000  -0.5000   0.5000   -1.5820351   -1.5837498    1.5822643   1
    4  682.4276416    0.4946273  148.5760140  -0.5000  -0.5000   0.5000   -1.5820351   -1.5837498    1.5822643   1
    4  682.1229283    1.3059441  150.4711090  -0.5000  -0.5000   0.5000   -1.5820351   -1.5837498    1.5822643   1
    4  682.3084763    2.9750418  151.3809027  -0.5000  -0.5000   0.5000   -1.5820351   -1.5837498    1.5822643   1
    4  682.1366582    4.9795630  152.3740536  -0.5000  -0.5000   0.5000   -1.5820351   -1.5837498    1.5822643   1
    4  682.3858971    6.0911973  154.1628209  -0.5000  -0.5000   0.5000   -1.5820351   -1.5837498    1.5822643   1
    4  684.1723148    6.3581064  155.5707782  -0.5000  -0.5000   0.5000   -1.5820351   -1.5837498    1.5822643   1
    4  686.2980642    5.5903492  155.9326627  -0.5000  -0.5000   0.5000   -1.5820351   -1.5837498    1.5822643   1
    4  687.1348600    3.2263423  155.7712120  -0.5000  -0.5000   0.5000   -1.5820351   -1.5837498    1.5822643   1
    4  687.4330217    0.7017312  155.3660828  -0.5000  -0.5000   0.5000   -1.5820351   -1.5837498    1.5822643   1
    4  687.5265450   -0.6919083  154.2288670  -0.5000  -0.5000   0.5000   -1.5820351   -1.5837498    1.5822643   1
    4  686.8459110   -1.0214531  152.3448628  -0.5000  -0.5000   0.5000   -1.5820351   -1.5837498    1.5822643   1
    4  686.1328783   -0.8271550  150.3653892  -0.5000  -0.5000   0.5000   -1.5820351   -1.5837498    1.5822643   1
    4  685.3881340   -0.3779635  148.6177185  -0.5000  -0.5000   0.5000   -1.5820351   -1.5837498    1.5822643   1
    4  684.7358796    0.1258519  146.9933259  -0.5000  -0.5000   0.5000   -1.5820351   -1.5837498    1.5822643   1
    4  684.3673311    0.2893595  146.0623403  -0.5000  -0.5000   0.5000   -1.5820351   -1.5837498    1.5822643   1
    4  683.2575023    0.2403042  146.5441354  -0.5000  -0.5000   0.5000   -1.5820351   -1.5837498    1.5822643   1
    5  638.5959167  122.4567500  617.9414583  -0.0000  -1.0000  -0.0000    0.0000535   -3.1646667   -0.0004275   0
    5  640.9586840  121.8455163  618.2962977  -0.0000  -1.0000  -0.0000    0.0000535   -3.1646667   -0.0004275   0
    5  642.7464003  121.6416317  619.5911961  -0.0000  -1.0000  -0.0000    0.0000535   -3.1646667   -0.0004275   0
    5  644.9105480  120.9988656  621.1092530  -0.0000  -1.0000  -0.0000    0.0000535   -3.1646667   -0.0004275   0
    5  647.4314468  120.0912024  622.0487795  -0.0000  -1.0000  -0.0000    0.0000535   -3.1646667   -0.0004275   0
    5  649.1325464  119.3287403  623.0577339  -0.0000  -1.0000  -0.0000    0.0000535   -3.1646667   -0.0004275   0
    5  649.6711428  117.8360715  625.4507143  -0.0000  -1.0000  -0.0000    0.0000535   -3.1646667   -0.0004275   0
    6  522.1896666  145.7838333  519.8724444   0.5000   0.5000  -0.5000    1.5820351    1.5837498   -1.5822643   0
    6  522.1828098  148.4456119  520.8285714   0.5000   0.5000  -0.5000    1.5820351    1.5837498   -1.5822643   0
    6  523.1513848  149.6881341  521.7545210   0.5000   0.5000  -0.5000    1.5820351    1.5837498   -1.5822643   0
    6  524.6712190  150.3461974  522.9519204   0.5000   0.5000  -0.5000    1.5820351    1.5837498   -1.5822643   0
    6  525.7198804  152.4355147  524.1522065   0.5000   0.5000  -0.5000    1.5820351    1.5837498   -1.5822643   0
    6  525.9852528  155.8064987  524.7451105   0.5000   0.5000  -0.5000    1.5820351    1.5837498   -1.5822643   0
    6  525.9239031  158.8807051  524.8874220   0.5000   0.5000  -0.5000    1.5820351    1.5837498   -1.5822643   0
    6  525.7632096  161.5023453  524.4930702   0.5000   0.5000  -0.5000    1.5820351    1.5837498   -1.5822643   0
    6  525.6722449  163.6247031  524.3683268   0.5000   0.5000  -0.5000    1.5820351    1.5837498   -1.5822643   0
    6  525.5811179  164.6469232  525.0484567   0.5000   0.5000  -0.5000    1.5820351    1.5837498   -1.5822643   0
    6  524.8863450  165.4384612  524.8786814   0.5000   0.5000  -0.5000    1.5820351    1.5837498   -1.5822643   0
    6  523.8030071  167.2261001  524.1019414   0.5000   0.5000  -0.5000    1.5820351    1.5837498   -1.5822643   0
    6  522.7026764  169.0265987  523.6277804   0.5000   0.5000  -0.5000    1.5820351    1.5837498   -1.5822643   0
    6  521.1186802  169.5528161  522.6850123   0.5000   0.5000  -0.5000    1.5820351    1.5837498   -1.5822643   0
    6  519.1250096  169.3340924  521.1213058   0.5000   0.5000  -0.5000    1.5820351    1.5837498   -1.5822643   0
    6  517.4611795  169.3239106  519.7100270   0.5000   0.5000  -0.5000    1.5820351    1.5837498   -1.5822643   0
    6  516.1476656  170.3258790  519.0212631   0.5000   0.5000  -0.5000    1.5820351    1.5837498   -1.5822643   0
    6  514.8432556  172.2973792  518.6940305   0.5000   0.5000  -0.5000    1.5820351    1.5837498   -1.5822643   0
    6  513.8534105  174.2219070  518.1789326   0.5000   0.5000  -0.5000    1.5820351    1.5837498   -1.5822643   0
    6  512.7945366  176.0283803  517.3789681   0.5000   0.5000  -0.5000    1.5820351    1.5837498   -1.5822643   0
    6  511.4309041  177.8617176  516.9006627   0.5000   0.5000  -0.5000    1.5820351    1.5837498   -1.5822643   0
    6  510.8178197  179.4368938  517.5604282   0.5000   0.5000  -0.5000    1.5820351    1.5837498   -1.5822643   0
    6  511.3252673  180.8854898  518.9960567   0.5000   0.5000  -0.5000    1.5820351    1.5837498   -1.5822643   0
    6  512.9616002  181.9636036  520.1052073   0.5000   0.5000  -0.5000    1.5820351    1.5837498   -1.5822643   0
    6  515.1630432  182.7116176  520.6992379   0.5000   0.5000  -0.5000    1.5820351    1.5837498   -1.5822643   0
    6  516.9963422  183.5899571  521.3831540   0.5000   0.5000  -0.5000    1.5820351    1.5837498   -1.5822643   0
    6  518.7998471  184.0182497  522.3434065   0.5000   0.5000  -0.5000    1.5820351    1.5837498   -1.5822643   0
    6  520.5055560  184.1390319  523.3961819   0.5000   0.5000  -0.5000    1.5820351    1.5837498   -1.5822643   0
    6  521.9385582  184.6073013  524.5366818   0.5000   0.5000  -0.5000    1.5820351    1.5837498   -1.5822643   0
    6  523.4218898  185.4905871  525.6327748   0.5000   0.5000  -0.5000    1.5820351    1.5837498   -1.5822643   0
    6  524.4565378  186.9605512  526.7133096   0.5000   0.5000  -0.5000    1.5820351    1.5837498   -1.5822643   0
    6  525.3801118  188.3767981  528.2077164   0.5000   0.5000  -0.5000    1.5820351    1.5837498   -1.5822643   0
    6  526.6703145  189.5175730  529.6220444   0.5000   0.5000  -0.5000    1.5820351    1.5837498   -1.5822643   0
    6  527.7424034  190.8086171  530.1853091   0.5000   0.5000  -0.5000    1.5820351    1.5837498   -1.5822643   0
    6  528.6059268  192.3158387  530.4225615   0.5000   0.5000  -0.5000    1.5820351    1.5837498   -1.5822643   0
    6  529.7323754  193.5115321  531.1074261   0.5000   0.5000  -0.5000    1.5820351    1.5837498   -1.5822643   0
    6  531.3033224  194.3387580  532.2019835   0.5000   0.5000  -0.5000    1.5820351    1.5837498   -1.5822643   0
    6  533.3077342  195.5451451  533.1987113   0.5000   0.5000  -0.5000    1.5820351    1.5837498   -1.5822643   0
    6  534.9816813  197.1334333  534.0867281   0.5000   0.5000  -0.5000    1.5820351    1.5837498   -1.5822643   0
    6  535.7915109  198.5721275  535.2973580   0.5000   0.5000  -0.5000    1.5820351    1.5837498   -1.5822643   0
    6  536.2348734  199.7280001  536.8211763   0.5000   0.5000  -0.5000    1.5820351    1.5837498   -1.5822643   0
    6  537.0821008  200.6563139  538.6399810   0.5000   0.5000  -0.5000    1.5820351    1.5837498   -1.5822643   0
    6  538.9640637  201.0295606  540.3069150   0.5000   0.5000  -0.5000    1.5820351    1.5837498   -1.5822643   0
    6  540.7621738  200.5061187  540.9715359   0.5000   0.5000  -0.5000    1.5820351    1.5837498   -1.5822643   0
    6  541.7851114  198.7697799  540.7303476   0.5000   0.5000  -0.5000    1.5820351    1.5837498   -1.5822643   0
    6  543.0074333  196.8430640  539.9764914   0.5000   0.5000  -0.5000    1.5820351    1.5837498   -1.5822643   0
    6  544.4416208  195.8116793  538.6326894   0.5000   0.5000  -0.5000    1.5820351    1.5837498   -1.5822643   0
    6  545.4102518  195.3640614  535.6702649   0.5000   0.5000  -0.5000    1.5820351    1.5837498   -1.5822643   0
    6  545.6925701  195.1647905  533.0541036   0.5000   0.5000  -0.5000    1.5820351    1.5837498   -1.5822643   0
    6  546.1123022  194.8692596  534.3698656   0.5000   0.5000  -0.5000    1.5820351    1.5837498   -1.5822643   0
    6  547.3067669  194.0727027  537.2151980   0.5000   0.5000  -0.5000    1.5820351    1.5837498   -1.5822643   0
    6  548.8568539  192.7025523  538.4908614   0.5000   0.5000  -0.5000    1.5820351    1.5837498   -1.5822643   0
    6  550.2863315  190.8642153  538.6996092   0.5000   0.5000  -0.5000    1.5820351    1.5837498   -1.5822643   0
    6  551.3383503  189.0788459  538.9241221   0.5000   0.5000  -0.5000    1.5820351    1.5837498   -1.5822643   0
    6  552.4412269  188.2651007  539.6578356   0.5000   0.5000  -0.5000    1.5820351    1.5837498   -1.5822643   0
    6  554.0103734  188.5595743  540.3470758   0.5000   0.5000  -0.5000    1.5820351    1.5837498   -1.5822643   0
    6  555.4243911  189.8727405  540.9883735   0.5000   0.5000  -0.5000    1.5820351    1.5837498   -1.5822643   0
    6  556.1944417  192.3380305  541.8462745   0.5000   0.5000  -0.5000    1.5820351    1.5837498   -1.5822643   0
    6  556.1735359  195.3357373  542.4818491   0.5000   0.5000  -0.5000    1.5820351    1.5837498   -1.5822643   0
    6  555.6717260  197.7000232  543.0647252   0.5000   0.5000  -0.5000    1.5820351    1.5837498   -1.5822643   0
    6  555.7981691  199.5889787  544.1674647   0.5000   0.5000  -0.5000    1.5820351    1.5837498   -1.5822643   0
    6  556.4873259  201.3257459  545.9977717   0.5000   0.5000  -0.5000    1.5820351    1.5837498   -1.5822643   0
    6  557.2773770  202.3743268  548.1808191   0.5000   0.5000  -0.5000    1.5820351    1.5837498   -1.5822643   0
    6  558.7453819  202.9109574  549.7861284   0.5000   0.5000  -0.5000    1.5820351    1.5837498   -1.5822643   0
    6  560.2487625  203.3524569  550.4192712   0.5000   0.5000  -0.5000    1.5820351    1.5837498   -1.5822643   0
    6  560.1344304  204.0713612  549.8834739   0.5000   0.5000  -0.5000    1.5820351    1.5837498   -1.5822643   0
    6  558.8048325  205.7054726  548.2565135   0.5000   0.5000  -0.5000    1.5820351    1.5837498   -1.5822643   0
    6  557.5785490  208.1792198  546.7320549   0.5000   0.5000  -0.5000    1.5820351    1.5837498   -1.5822643   0
    6  556.1792482  210.0077855  546.1355114   0.5000   0.5000  -0.5000    1.5820351    1.5837498   -1.5822643   0
    6  554.5676581  210.9334037  545.8026043   0.5000   0.5000  -0.5000    1.5820351    1.5837498   -1.5822643   0
    6  553.1181840  212.3888568  545.1955462   0.5000   0.5000  -0.5000    1.5820351    1.5837498   -1.5822643   0
    6  552.0704782  214.2356476  544.3322963   0.5000   0.5000  -0.5000    1.5820351    1.5837498   -1.5822643   0
    6  551.8541114  215.9345012  543.2115858   0.5000   0.5000  -0.5000    1.5820351    1.5837498   -1.5822643   0
    6  552.2128542  217.6946432  542.1059703   0.5000   0.5000  -0.5000    1.5820351    1.5837498   -1.5822643   0
    6  553.0863502  219.3242842  541.2616454   0.5000   0.5000  -0.5000    1.5820351    1.5837498   -1.5822643   0
    6  554.6490965  220.5581871  541.3478318   0.5000   0.5000  -0.5000    1.5820351    1.5837498   -1.5822643   0
    6  556.3903128  221.6948009  542.0736696   0.5000   0.5000  -0.5000    1.5820351    1.5837498   -1.5822643   0
    6  557.5991748  223.0932961  543.0117594   0.5000   0.5000  -0.5000    1.5820351    1.5837498   -1.5822643   0
    6  558.5166372  224.4122736  544.5009744   0.5000   0.5000  -0.5000    1.5820351    1.5837498   -1.5822643   0
    6  559.5780078  225.6845012  546.1057620   0.5000   0.5000  -0.5000    1.5820351    1.5837498   -1.5822643   0
    6  560.3432354  227.3921335  547.3838710   0.5000   0.5000  -0.5000    1.5820351    1.5837498   -1.5822643   0
    6  561.0587198  229.5801341  548.2093141   0.5000   0.5000  -0.5000    1.5820351    1.5837498   -1.5822643   0
    6  561.4253203  231.5245998  548.7383029   0.5000   0.5000  -0.5000    1.5820351    1.5837498   -1.5822643   0
    6  560.4892925  233.3143353  548.8128755   0.5000   0.5000  -0.5000    1.5820351    1.5837498   -1.5822643   0
    6  559.6197828  235.8738138  548.6203139   0.5000   0.5000  -0.5000    1.5820351    1.5837498   -1.5822643   0
    6  560.2996288  238.5388082  548.5381909   0.5000   0.5000  -0.5000    1.5820351    1.5837498   -1.5822643   0
    6  562.1223559  239.6774598  548.6652418   0.5000   0.5000  -0.5000    1.5820351    1.5837498   -1.5822643   0
    6  564.0252105  239.8899787  549.2455275   0.5000   0.5000  -0.5000    1.5820351    1.5837498   -1.5822643   0
    6  565.6134286  240.7248018  549.8814512   0.5000   0.5000  -0.5000    1.5820351    1.5837498   -1.5822643   0
    6  566.9169402  241.9653847  550.4028715   0.5000   0.5000  -0.5000    1.5820351    1.5837498   -1.5822643   0
    6  567.5496780  243.6231757  550.9637028   0.5000   0.5000  -0.5000    1.5820351    1.5837498   -1.5822643   0
    6  568.0018496  245.3648208  551.6030072   0.5000   0.5000  -0.5000    1.5820351    1.5837498   -1.5822643   0
    6  569.2902320  246.2466501  552.5495235   0.5000   0.5000  -0.5000    1.5820351    1.5837498   -1.5822643   0
    6  571.3213850  246.8428313  553.5499664   0.5000   0.5000  -0.5000    1.5820351    1.5837498   -1.5822643   0
    6  573.2419570  248.1075624  554.1827956   0.5000   0.5000  -0.5000    1.5820351    1.5837498   -1.5822643   0
    6  574.3700462  249.8562393  554.3076938   0.5000   0.5000  -0.5000    1.5820351    1.5837498   -1.5822643   0
    6  574.0181838  251.4989312  553.9544728   0.5000   0.5000  -0.5000    1.5820351    1.5837498   -1.5822643   0
    6  572.3732659  252.9594333  553.5770501   0.5000   0.5000  -0.5000    1.5820351    1.5837498   -1.5822643   0
    6  570.9582943  254.9094352  553.4387828   0.5000   0.5000  -0.5000    1.5820351    1.5837498   -1.5822643   0
    6  570.6820776  257.2915674  553.8974375   0.5000   0.5000  -0.5000    1.5820351    1.5837498   -1.5822643   0
    6  571.3163393  259.5058287  554.9889062   0.5000   0.5000  -0.5000    1.5820351    1.5837498   -1.5822643   0
    6  572.4159638  261.7751829  555.7672309   0.5000   0.5000  -0.5000    1.5820351    1.5837498   -1.5822643   0
    6  573.9646818  263.6176208  555.9159000   0.5000   0.5000  -0.5000    1.5820351    1.5837498   -1.5822643   0
    6  576.1029311  264.6267891  555.4689231   0.5000   0.5000  -0.5000    1.5820351    1.5837498   -1.5822643   0
    6  577.9570741  265.8504827  555.0564502   0.5000   0.5000  -0.5000    1.5820351    1.5837498   -1.5822643   0
    6  578.8935297  267.7355662  555.4540891   0.5000   0.5000  -0.5000    1.5820351    1.5837498   -1.5822643   0
    6  580.0042504  269.5520698  555.8743395   0.5000   0.5000  -0.5000    1.5820351    1.5837498   -1.5822643   0
    6  581.9589622  270.4452651  556.0205510   0.5000   0.5000  -0.5000    1.5820351    1.5837498   -1.5822643   0
    6  584.2192168  270.1581746  556.5245629   0.5000   0.5000  -0.5000    1.5820351    1.5837498   -1.5822643   0
    6  586.6090730  269.7775731  557.3180773   0.5000   0.5000  -0.5000    1.5820351    1.5837498   -1.5822643   0
    6  588.8758639  270.4748401  557.4828125   0.5000   0.5000  -0.5000    1.5820351    1.5837498   -1.5822643   0
    6  590.3553544  272.0378555  557.3515483   0.5000   0.5000  -0.5000    1.5820351    1.5837498   -1.5822643   0
    6  591.0599537  273.9496817  558.0615984   0.5000   0.5000  -0.5000    1.5820351    1.5837498   -1.5822643   0
    6  591.6478828  275.9412605  559.0945735   0.5000   0.5000  -0.5000    1.5820351    1.5837498   -1.5822643   0
    6  592.4817853  277.7255944  559.8365839   0.5000   0.5000  -0.5000    1.5820351    1.5837498   -1.5822643   0
    6  593.6021446  279.6076262  559.9606297   0.5000   0.5000  -0.5000    1.5820351    1.5837498   -1.5822643   0
    6  594.9036723  281.9641790  559.8922650   0.5000   0.5000  -0.5000    1.5820351    1.5837498   -1.5822643   0
    6  595.5719529  284.4639839  560.4691282   0.5000   0.5000  -0.5000    1.5820351    1.5837498   -1.5822643   0
    6  595.6584600  286.6366233  561.2792764   0.5000   0.5000  -0.5000    1.5820351    1.5837498   -1.5822643   0
    6  596.1823022  288.5393940  562.1007158   0.5000   0.5000  -0.5000    1.5820351    1.5837498   -1.5822643   0
    6  597.3780607  291.2518922  562.7769183   0.5000   0.5000  -0.5000    1.5820351    1.5837498   -1.5822643   0
    6  599.1733767  295.8164567  562.9076315   0.5000   0.5000  -0.5000    1.5820351    1.5837498   -1.5822643   0
    7  375.1755586   90.6007824  553.4843586  -0.5000  -0.5000  -0.5000   -1.5824948   -1.5801460   -1.5823509   1
    7  373.8917086   89.6182799  553.5869838  -0.5000  -0.5000  -0.5000   -1.5824948   -1.5801460   -1.5823509   1
    7  372.1239745   88.8690758  554.0761329  -0.5000  -0.5000  -0.5000   -1.5824948   -1.5801460   -1.5823509   1
    7  370.8949864   88.1508912  555.5221103  -0.5000  -0.5000  -0.5000   -1.5824948   -1.5801460   -1.5823509   1
    7  369.8590692   87.2823367  557.1562614  -0.5000  -0.5000  -0.5000   -1.5824948   -1.5801460   -1.5823509   1
    7  368.8291992   86.3788916  558.8951066  -0.5000  -0.5000  -0.5000   -1.5824948   -1.5801460   -1.5823509   1
    7  368.5841425   85.8271686  561.0834642  -0.5000  -0.5000  -0.5000   -1.5824948   -1.5801460   -1.5823509   1
    7  368.6420625   85.1471202  562.6677919  -0.5000  -0.5000  -0.5000   -1.5824948   -1.5801460   -1.5823509   1
    7  368.1256739   84.1818573  563.7464183  -0.5000  -0.5000  -0.5000   -1.5824948   -1.5801460   -1.5823509   1
    7  368.2411805   83.6085780  564.3963592  -0.5000  -0.5000  -0.5000   -1.5824948   -1.5801460   -1.5823509   1
    7  369.3657456   82.5141145  563.7283463  -0.5000  -0.5000  -0.5000   -1.5824948   -1.5801460   -1.5823509   1
    7  370.6055188   80.3812856  562.7393079  -0.5000  -0.5000  -0.5000   -1.5824948   -1.5801460   -1.5823509   1
    7  372.3209452   79.0562691  561.9367437  -0.5000  -0.5000  -0.5000   -1.5824948   -1.5801460   -1.5823509   1
    7  374.0975106   78.6189739  560.8557389  -0.5000  -0.5000  -0.5000   -1.5824948   -1.5801460   -1.5823509   1
    7  375.0610208   77.5315137  560.1112816  -0.5000  -0.5000  -0.5000   -1.5824948   -1.5801460   -1.5823509   1
    7  375.6448045   77.1272737  559.7491299  -0.5000  -0.5000  -0.5000   -1.5824948   -1.5801460   -1.5823509   1
    7  376.5276760   78.5692536  558.9011939  -0.5000  -0.5000  -0.5000   -1.5824948   -1.5801460   -1.5823509   1
    7  377.6314120   80.3374308  557.5417144  -0.5000  -0.5000  -0.5000   -1.5824948   -1.5801460   -1.5823509   1
    7  378.2034915   81.9192244  556.0874036  -0.5000  -0.5000  -0.5000   -1.5824948   -1.5801460   -1.5823509   1
    7  378.0901866   83.5747731  554.4965248  -0.5000  -0.5000  -0.5000   -1.5824948   -1.5801460   -1.5823509   1
    7  377.7250005   85.3546883  553.1845793  -0.5000  -0.5000  -0.5000   -1.5824948   -1.5801460   -1.5823509   1
    7  377.0127885   87.5429560  552.8813156  -0.5000  -0.5000  -0.5000   -1.5824948   -1.5801460   -1.5823509   1
    7  375.1755586   90.6007824  553.4843586  -0.5000  -0.5000  -0.5000   -1.5824948   -1.5801460   -1.5823509   1