ITEM: TIMESTEP
0
ITEM: NUMBER OF ATOMS
11380
ITEM: BOX BOUNDS pp pp pp 
0.0 696.474345
0.0 696.636586
0.0 697.485095
ITEM: ATOMS id x y z tbx tby tbz sbx sby sbz loop
    0  559.8148028  654.9197021   -9.0629398   0.5000  -0.5000  -0.5000    1.5822060   -1.5809883   -1.5827981   0
    0  554.9989905  656.1093932  -11.2317607   0.5000  -0.5000  -0.5000    1.5822060   -1.5809883   -1.5827981   0
    0  553.1010902  657.2119862  -12.6769144   0.5000  -0.5000  -0.5000    1.5822060   -1.5809883   -1.5827981   0
    0  552.3934724  658.7812382  -14.2956300   0.5000  -0.5000  -0.5000    1.5822060   -1.5809883   -1.5827981   0
    0  551.2941700  660.0888432  -16.4032495   0.5000  -0.5000  -0.5000    1.5822060   -1.5809883   -1.5827981   0
    0  551.0045619  660.4537141  -17.8887019   0.5000  -0.5000  -0.5000    1.5822060   -1.5809883   -1.5827981   0
    0  552.4748182  660.1994428  -17.4327188   0.5000  -0.5000  -0.5000    1.5822060   -1.5809883   -1.5827981   0
    0  554.0991336  660.6308979  -16.0028396   0.5000  -0.5000  -0.5000    1.5822060   -1.5809883   -1.5827981   0
    0  554.7572429  662.3911784  -15.1716369   0.5000  -0.5000  -0.5000    1.5822060   -1.5809883   -1.5827981   0
    0  555.5239845  664.5706728  -14.4717706   0.5000  -0.5000  -0.5000    1.5822060   -1.5809883   -1.5827981   0
    0  556.7014195  666.0490702  -13.1223767   0.5000  -0.5000  -0.5000    1.5822060   -1.5809883   -1.5827981   0
    0  557.6486468  666.6728709  -11.8621830   0.5000  -0.5000  -0.5000    1.5822060   -1.5809883   -1.5827981   0
    0  557.9845806  667.1096417  -12.5983896   0.5000  -0.5000  -0.5000    1.5822060   -1.5809883   -1.5827981   0
    0  558.0804946  667.9667088  -14.7147158   0.5000  -0.5000  -0.5000    1.5822060   -1.5809883   -1.5827981   0
    0  558.9006884  669.4537901  -16.2311561   0.5000  -0.5000  -0.5000    1.5822060   -1.5809883   -1.5827981   0
    0  559.7291488  671.0998978  -16.2826025   0.5000  -0.5000  -0.5000    1.5822060   -1.5809883   -1.5827981   0
    0  559.3287516  672.4307492  -15.5513424   0.5000  -0.5000  -0.5000    1.5822060   -1.5809883   -1.5827981   0
    0  558.9877162  673.6097280  -15.7567640   0.5000  -0.5000  -0.5000    1.5822060   -1.5809883   -1.5827981   0
    0  560.0384317  674.6683267  -16.4670879   0.5000  -0.5000  -0.5000    1.5822060   -1.5809883   -1.5827981   0
    0  561.7266702  675.0196350  -16.6528451   0.5000  -0.5000  -0.5000    1.5822060   -1.5809883   -1.5827981   0
    0  563.0387056  674.8565110  -16.0362083   0.5000  -0.5000  -0.5000    1.5822060   -1.5809883   -1.5827981   0
    0  564.4714593  674.8243792  -14.9078654   0.5000  -0.5000  -0.5000    1.5822060   -1.5809883   -1.5827981   0
    0  566.5213095  674.6140582  -13.8012463   0.5000  -0.5000  -0.5000    1.5822060   -1.5809883   -1.5827981   0
    0  568.5636591  674.0888922  -12.6951670   0.5000  -0.5000  -0.5000    1.5822060   -1.5809883   -1.5827981   0
    0  570.7717814  673.9561707  -11.8880719   0.5000  -0.5000  -0.5000    1.5822060   -1.5809883   -1.5827981   0
    0  572.8181521  674.3693794  -10.9270963   0.5000  -0.5000  -0.5000    1.5822060   -1.5809883   -1.5827981   0
    0  574.1902187  674.7384145   -9.2247686   0.5000  -0.5000  -0.5000    1.5822060   -1.5809883   -1.5827981   0
    0  575.9950107  674.7684507   -7.7876455   0.5000  -0.5000  -0.5000    1.5822060   -1.5809883   -1.5827981   0
    0  577.8425178  675.2966918   -7.3664059   0.5000  -0.5000  -0.5000    1.5822060   -1.5809883   -1.5827981   0
    0  578.6966386  676.7915624   -8.2196376   0.5000  -0.5000  -0.5000    1.5822060   -1.5809883   -1.5827981   0
    0  578.9499440  678.2530382  -10.2699664   0.5000  -0.5000  -0.5000    1.5822060   -1.5809883   -1.5827981   0
    0  578.2814283  679.0928136  -12.2571322   0.5000  -0.5000  -0.5000    1.5822060   -1.5809883   -1.5827981   0
    0  576.6125442  679.9191743  -13.2876705   0.5000  -0.5000  -0.5000    1.5822060   -1.5809883   -1.5827981   0
    0  575.2090261  681.1189135  -14.2100023   0.5000  -0.5000  -0.5000    1.5822060   -1.5809883   -1.5827981   0
    0  575.5429623  682.3433884  -15.4357736   0.5000  -0.5000  -0.5000    1.5822060   -1.5809883   -1.5827981   0
    0  577.4826276  683.4508575  -16.3009721   0.5000  -0.5000  -0.5000    1.5822060   -1.5809883   -1.5827981   0
    0  579.4287849  684.3015142  -16.7163458   0.5000  -0.5000  -0.5000    1.5822060   -1.5809883   -1.5827981   0
    0  581.3411881  684.9933604  -16.5212576   0.5000  -0.5000  -0.5000    1.5822060   -1.5809883   -1.5827981   0
    0  583.5904055  685.1439195  -16.1988607   0.5000  -0.5000  -0.5000    1.5822060   -1.5809883   -1.5827981   0
    0  585.5606990  684.2749271  -15.6782027   0.5000  -0.5000  -0.5000    1.5822060   -1.5809883   -1.5827981   0
    0  587.2927507  683.0012163  -14.5507768   0.5000  -0.5000  -0.5000    1.5822060   -1.5809883   -1.5827981   0
    0  588.8407124  681.7322578  -13.6502297   0.5000  -0.5000  -0.5000    1.5822060   -1.5809883   -1.5827981   0
    0  590.1197993  680.5210792  -12.7431964   0.5000  -0.5000  -0.5000    1.5822060   -1.5809883   -1.5827981   0
    0  591.3072747  678.9634434  -11.8532841   0.5000  -0.5000  -0.5000    1.5822060   -1.5809883   -1.5827981   0
    0  591.7532950  677.0014209  -11.3729074   0.5000  -0.5000  -0.5000    1.5822060   -1.5809883   -1.5827981   0
    0  591.2607188  675.2263904  -10.7212605   0.5000  -0.5000  -0.5000    1.5822060   -1.5809883   -1.5827981   0
    0  590.5029396  672.8763605  -10.2063994   0.5000  -0.5000  -0.5000    1.5822060   -1.5809883   -1.5827981   0
    0  589.7688105  670.1015878   -9.6875561   0.5000  -0.5000  -0.5000    1.5822060   -1.5809883   -1.5827981   0
    0  589.6972895  668.2080002   -8.4937377   0.5000  -0.5000  -0.5000    1.5822060   -1.5809883   -1.5827981   0
    0  590.7186110  667.0492521   -7.3015143   0.5000  -0.5000  -0.5000    1.5822060   -1.5809883   -1.5827981   0
    0  591.8700298  665.7689456   -6.4023632   0.5000  -0.5000  -0.5000    1.5822060   -1.5809883   -1.5827981   0
    0  591.9521697  663.7358032   -5.4912239   0.5000  -0.5000  -0.5000    1.5822060   -1.5809883   -1.5827981   0
    0  591.3730538  661.2373107   -4.8788336   0.5000  -0.5000  -0.5000    1.5822060   -1.5809883   -1.5827981   0
    0  590.8955286  658.9233496   -4.5046378   0.5000  -0.5000  -0.5000    1.5822060   -1.5809883   -1.5827981   0
    0  590.2409078  657.2697268   -3.7843666   0.5000  -0.5000  -0.5000    1.5822060   -1.5809883   -1.5827981   0
    0  589.5801329  655.6054579   -3.0824409   0.5000  -0.5000  -0.5000    1.5822060   -1.5809883   -1.5827981   0
    0  588.9418279  653.4920392   -2.6968520   0.5000  -0.5000  -0.5000    1.5822060   -1.5809883   -1.5827981   0
    0  588.0020779  651.8592014   -1.9371444   0.5000  -0.5000  -0.5000    1.5822060   -1.5809883   -1.5827981   0
    0  587.2389304  650.8372240   -0.3597497   0.5000  -0.5000  -0.5000    1.5822060   -1.5809883   -1.5827981   0
    0  587.2996573  649.9902834    1.4601493   0.5000  -0.5000  -0.5000    1.5822060   -1.5809883   -1.5827981   0
    0  588.3228509  648.8035885    2.5031603   0.5000  -0.5000  -0.5000    1.5822060   -1.5809883   -1.5827981   0
    0  589.1710223  647.6552049    3.6613050   0.5000  -0.5000  -0.5000    1.5822060   -1.5809883   -1.5827981   0
    0  588.9476241  647.2442136    5.9220727   0.5000  -0.5000  -0.5000    1.5822060   -1.5809883   -1.5827981   0
    0  588.3065412  646.8252792    8.2288576   0.5000  -0.5000  -0.5000    1.5822060   -1.5809883   -1.5827981   0
    0  587.5260325  645.8903806    9.8103565   0.5000  -0.5000  -0.5000    1.5822060   -1.5809883   -1.5827981   0
    0  586.5968128  644.7297052   11.0827218   0.5000  -0.5000  -0.5000    1.5822060   -1.5809883   -1.5827981   0
    0  585.8235871  643.4459926   12.6841532   0.5000  -0.5000  -0.5000    1.5822060   -1.5809883   -1.5827981   0
    0  585.0760241  641.7528249   14.0334394   0.5000  -0.5000  -0.5000    1.5822060   -1.5809883   -1.5827981   0
    0  584.1509229  639.7944372   14.6444182   0.5000  -0.5000  -0.5000    1.5822060   -1.5809883   -1.5827981   0
    0  583.5214290  638.0828008   15.2708449   0.5000  -0.5000  -0.5000    1.5822060   -1.5809883   -1.5827981   0
    0  583.4027654  636.6895110   16.4408220   0.5000  -0.5000  -0.5000    1.5822060   -1.5809883   -1.5827981   0
    0  582.5631715  636.0297224   18.4365520   0.5000  -0.5000  -0.5000    1.5822060   -1.5809883   -1.5827981   0
    0  581.5674096  636.2138930   21.0807532   0.5000  -0.5000  -0.5000    1.5822060   -1.5809883   -1.5827981   0
    0  582.1377987  636.5792935   23.5396013   0.5000  -0.5000  -0.5000    1.5822060   -1.5809883   -1.5827981   0
    0  583.3032916  636.8590978   25.5857169   0.5000  -0.5000  -0.5000    1.5822060   -1.5809883   -1.5827981   0
    0  584.2700619  637.4313354   27.2674420   0.5000  -0.5000  -0.5000    1.5822060   -1.5809883   -1.5827981   0
    0  585.6658007  638.3359305   28.5770840   0.5000  -0.5000  -0.5000    1.5822060   -1.5809883   -1.5827981   0
    0  587.0473365  639.7024595   29.6825638   0.5000  -0.5000  -0.5000    1.5822060   -1.5809883   -1.5827981   0
    0  587.6315594  641.9525454   30.1212437   0.5000  -0.5000  -0.5000    1.5822060   -1.5809883   -1.5827981   0
    0  588.1804058  644.1190287   29.6243430   0.5000  -0.5000  -0.5000    1.5822060   -1.5809883   -1.5827981   0
    0  589.0490664  645.9584760   28.7720037   0.5000  -0.5000  -0.5000    1.5822060   -1.5809883   -1.5827981   0
    0  589.4376161  648.0023806   28.4563743   0.5000  -0.5000  -0.5000    1.5822060   -1.5809883   -1.5827981   0
    0  589.9268842  649.3668051   28.9772044   0.5000  -0.5000  -0.5000    1.5822060   -1.5809883   -1.5827981   0
    0  590.5718950  650.4038214   29.5559062   0.5000  -0.5000  -0.5000    1.5822060   -1.5809883   -1.5827981   0
    0  590.5425727  652.1080953   29.3904100   0.5000  -0.5000  -0.5000    1.5822060   -1.5809883   -1.5827981   0
    0  590.4850411  653.9720130   29.3392053   0.5000  -0.5000  -0.5000    1.5822060   -1.5809883   -1.5827981   0
    0  590.9906523  655.2826821   30.3864469   0.5000  -0.5000  -0.5000    1.5822060   -1.5809883   -1.5827981   0
    0  592.1122732  656.4514810   31.1674395   0.5000  -0.5000  -0.5000    1.5822060   -1.5809883   -1.5827981   0
    0  593.3645480  658.2561574   30.7941751   0.5000  -0.5000  -0.5000    1.5822060   -1.5809883   -1.5827981   0
    0  594.2353699  660.4062815   30.2603338   0.5000  -0.5000  -0.5000    1.5822060   -1.5809883   -1.5827981   0
    0  595.2534946  662.1655685   30.2997195   0.5000  -0.5000  -0.5000    1.5822060   -1.5809883   -1.5827981   0
    0  596.2017947  663.7038599   30.9635378   0.5000  -0.5000  -0.5000    1.5822060   -1.5809883   -1.5827981   0
    0  596.7405441  665.9505123   32.4360595   0.5000  -0.5000  -0.5000    1.5822060   -1.5809883   -1.5827981   0
    0  596.9609330  667.9816606   34.0466157   0.5000  -0.5000  -0.5000    1.5822060   -1.5809883   -1.5827981   0
    0  596.5562263  667.9890077   33.7166825   0.5000  -0.5000  -0.5000    1.5822060   -1.5809883   -1.5827981   0
    0  596.7456866  667.2613947   31.5683675   0.5000  -0.5000  -0.5000    1.5822060   -1.5809883   -1.5827981   0
    0  597.9341434  667.9738786   29.7493253   0.5000  -0.5000  -0.5000    1.5822060   -1.5809883   -1.5827981   0
    0  599.1173213  669.6172958   29.0392940   0.5000  -0.5000  -0.5000    1.5822060   -1.5809883   -1.5827981   0
    0  600.2904736  671.3747848   29.0650029   0.5000  -0.5000  -0.5000    1.5822060   -1.5809883   -1.5827981   0
    0  601.6088301  673.0012064   29.1232555   0.5000  -0.5000  -0.5000    1.5822060   -1.5809883   -1.5827981   0
    0  603.5537230  673.8353963   29.2112548   0.5000  -0.5000  -0.5000    1.5822060   -1.5809883   -1.5827981   0
    0  605.9243551  674.2957416   29.6271475   0.5000  -0.5000  -0.5000    1.5822060   -1.5809883   -1.5827981   0
    0  607.7352832  674.8732614   30.5346558   0.5000  -0.5000  -0.5000    1.5822060   -1.5809883   -1.5827981   0
    0  609.0274043  675.7232536   31.6202217   0.5000  -0.5000  -0.5000    1.5822060   -1.5809883   -1.5827981   0
    0  610.2491413  676.9662766   32.2705847   0.5000  -0.5000  -0.5000    1.5822060   -1.5809883   -1.5827981   0
    0  610.5570188  677.9647564   32.2323992   0.5000  -0.5000  -0.5000    1.5822060   -1.5809883   -1.5827981   0
    0  609.9673954  678.6251376   30.5591348   0.5000  -0.5000  -0.5000    1.5822060   -1.5809883   -1.5827981   0
    0  609.9264878  679.0787767   27.5581607   0.5000  -0.5000  -0.5000    1.5822060   -1.5809883   -1.5827981   0
    0  609.9036877  679.5224055   24.6547388   0.5000  -0.5000  -0.5000    1.5822060   -1.5809883   -1.5827981   0
    0  609.0833399  680.2575132   22.4005753   0.5000  -0.5000  -0.5000    1.5822060   -1.5809883   -1.5827981   0
    0  607.7116261  681.0698706   21.1253488   0.5000  -0.5000  -0.5000    1.5822060   -1.5809883   -1.5827981   0
    0  606.1390314  682.0410160   20.5559676   0.5000  -0.5000  -0.5000    1.5822060   -1.5809883   -1.5827981   0
    0  604.5429575  682.6715521   19.7905781   0.5000  -0.5000  -0.5000    1.5822060   -1.5809883   -1.5827981   0
    0  602.5020671  681.9713993   19.0651284   0.5000  -0.5000  -0.5000    1.5822060   -1.5809883   -1.5827981   0
    0  600.8911194  680.1150119   19.3567923   0.5000  -0.5000  -0.5000    1.5822060   -1.5809883   -1.5827981   0
    0  600.9238402  678.7091946   19.7371154   0.5000  -0.5000  -0.5000    1.5822060   -1.5809883   -1.5827981   0
    0  601.9333307  678.9921096   18.7975459   0.5000  -0.5000  -0.5000    1.5822060   -1.5809883   -1.5827981   0
    0  602.6904832  680.8800641   17.0686208   0.5000  -0.5000  -0.5000    1.5822060   -1.5809883   -1.5827981   0
    0  603.0326492  683.4966167   15.1863812   0.5000  -0.5000  -0.5000    1.5822060   -1.5809883   -1.5827981   0
    0  603.2299229  685.0135029   12.8629284   0.5000  -0.5000  -0.5000    1.5822060   -1.5809883   -1.5827981   0
    0  602.3979146  685.3039854   10.6751944   0.5000  -0.5000  -0.5000    1.5822060   -1.5809883   -1.5827981   0
    0  601.1096517  685.4723809    8.6004722   0.5000  -0.5000  -0.5000    1.5822060   -1.5809883   -1.5827981   0
    0  600.7233859  685.3090160    5.6690524   0.5000  -0.5000  -0.5000    1.5822060   -1.5809883   -1.5827981   0
    0  600.0032968  685.2504346    3.7471280   0.5000  -0.5000  -0.5000    1.5822060   -1.5809883   -1.5827981   0
    0  598.5145852  685.9849146    3.9633771   0.5000  -0.5000  -0.5000    1.5822060   -1.5809883   -1.5827981   0
    0  597.5430878  686.9214511    3.7833988   0.5000  -0.5000  -0.5000    1.5822060   -1.5809883   -1.5827981   0
    0  597.5017908  687.8954255    2.1622530   0.5000  -0.5000  -0.5000    1.5822060   -1.5809883   -1.5827981   0
    0  598.1503492  689.2659187    0.8050393   0.5000  -0.5000  -0.5000    1.5822060   -1.5809883   -1.5827981   0
    0  598.9673732  690.6737470    0.0991547   0.5000  -0.5000  -0.5000    1.5822060   -1.5809883   -1.5827981   0
    0  599.6502306  691.8460016   -0.8122614   0.5000  -0.5000  -0.5000    1.5822060   -1.5809883   -1.5827981   0
    0  600.9280441  692.6829438   -1.6415429   0.5000  -0.5000  -0.5000    1.5822060   -1.5809883   -1.5827981   0
    0  602.9044582  693.1681815   -1.8754812   0.5000  -0.5000  -0.5000    1.5822060   -1.5809883   -1.5827981   0
    0  604.5729967  693.8966152   -1.2320473   0.5000  -0.5000  -0.5000    1.5822060   -1.5809883   -1.5827981   0
    0  606.2486024  694.7416692   -0.3102524   0.5000  -0.5000  -0.5000    1.5822060   -1.5809883   -1.5827981   0
    0  608.8309576  695.2564615    0.1654110   0.5000  -0.5000  -0.5000    1.5822060   -1.5809883   -1.5827981   0
    0  611.5026070  695.6697423    0.5357758   0.5000  -0.5000  -0.5000    1.5822060   -1.5809883   -1.5827981   0
    0  613.7598405  695.8477125    0.8461399   0.5000  -0.5000  -0.5000    1.5822060   -1.5809883   -1.5827981   0
    0  615.7709975  695.6525108    1.6130512   0.5000  -0.5000  -0.5000    1.5822060   -1.5809883   -1.5827981   0
    0  617.5892918  695.3841906    2.8809089   0.5000  -0.5000  -0.5000    1.5822060   -1.5809883   -1.5827981   0
    0  620.3654172  695.3258244    3.3529594   0.5000  -0.5000  -0.5000    1.5822060   -1.5809883   -1.5827981   0
    0  623.5664200  696.0267835    3.3573402   0.5000  -0.5000  -0.5000    1.5822060   -1.5809883   -1.5827981   0
    0  626.0359683  697.1586954    3.8040651   0.5000  -0.5000  -0.5000    1.5822060   -1.5809883   -1.5827981   0
    0  628.3466133  697.6529163    4.0653701   0.5000  -0.5000  -0.5000    1.5822060   -1.5809883   -1.5827981   0
    0  630.6043306  697.8375902    3.8533231   0.5000  -0.5000  -0.5000    1.5822060   -1.5809883   -1.5827981   0
    0  632.8914810  698.1272850    3.7620667   0.5000  -0.5000  -0.5000    1.5822060   -1.5809883   -1.5827981   0
    0  635.1856442  698.6303790    3.6130854   0.5000  -0.5000  -0.5000    1.5822060   -1.5809883   -1.5827981   0
    0  637.3763671  699.1034188    2.8136045   0.5000  -0.5000  -0.5000    1.5822060   -1.5809883   -1.5827981   0
    0  639.8311838  699.0734957    1.8994077   0.5000  -0.5000  -0.5000    1.5822060   -1.5809883   -1.5827981   0
    0  642.1853544  698.6444317    1.6518644   0.5000  -0.5000  -0.5000    1.5822060   -1.5809883   -1.5827981   0
    0  643.7008850  697.3568760    2.2971640   0.5000  -0.5000  -0.5000    1.5822060   -1.5809883   -1.5827981   0
    0  644.8066808  695.6204151    3.8903925   0.5000  -0.5000  -0.5000    1.5822060   -1.5809883   -1.5827981   0
    0  646.7561483  694.5028596    5.2142788   0.5000  -0.5000  -0.5000    1.5822060   -1.5809883   -1.5827981   0
    0  649.5327402  693.8819255    5.2677831   0.5000  -0.5000  -0.5000    1.5822060   -1.5809883   -1.5827981   0
    0  651.9624922  693.1967728    4.8203919   0.5000  -0.5000  -0.5000    1.5822060   -1.5809883   -1.5827981   0
    0  653.4493642  692.3390828    4.5355541   0.5000  -0.5000  -0.5000    1.5822060   -1.5809883   -1.5827981   0
    0  654.2458573  692.6621281    4.1930370   0.5000  -0.5000  -0.5000    1.5822060   -1.5809883   -1.5827981   0
    0  655.0140839  694.7232841    3.8110900   0.5000  -0.5000  -0.5000    1.5822060   -1.5809883   -1.5827981   0
    0  655.4197777  696.9947286    4.0843521   0.5000  -0.5000  -0.5000    1.5822060   -1.5809883   -1.5827981   0
    0  655.5260419  698.9020136    5.0032659   0.5000  -0.5000  -0.5000    1.5822060   -1.5809883   -1.5827981   0
    0  656.3704240  700.6771168    5.3891842   0.5000  -0.5000  -0.5000    1.5822060   -1.5809883   -1.5827981   0
    0  657.5148390  702.1640120    4.5854233   0.5000  -0.5000  -0.5000    1.5822060   -1.5809883   -1.5827981   0
    0  658.8848203  703.0007048    3.5681005   0.5000  -0.5000  -0.5000    1.5822060   -1.5809883   -1.5827981   0
    0  660.7801111  703.0966595    3.1981788   0.5000  -0.5000  -0.5000    1.5822060   -1.5809883   -1.5827981   0
    0  662.4991191  702.5368271    3.4296475   0.5000  -0.5000  -0.5000    1.5822060   -1.5809883   -1.5827981   0
    0  663.8371405  701.4474632    4.0622149   0.5000  -0.5000  -0.5000    1.5822060   -1.5809883   -1.5827981   0
    0  665.2232085  700.1157003    4.6594894   0.5000  -0.5000  -0.5000    1.5822060   -1.5809883   -1.5827981   0
    0  666.1533117  698.4042984    5.3924163   0.5000  -0.5000  -0.5000    1.5822060   -1.5809883   -1.5827981   0
    0  666.4989679  696.2347429    5.8411421   0.5000  -0.5000  -0.5000    1.5822060   -1.5809883   -1.5827981   0
    0  667.8777951  694.6613588    5.6695565   0.5000  -0.5000  -0.5000    1.5822060   -1.5809883   -1.5827981   0
    0  670.2161861  694.8477308    6.0472408   0.5000  -0.5000  -0.5000    1.5822060   -1.5809883   -1.5827981   0
    0  672.1146803  695.3810238    6.6724584   0.5000  -0.5000  -0.5000    1.5822060   -1.5809883   -1.5827981   0
    0  673.7646970  694.5862963    6.6747070   0.5000  -0.5000  -0.5000    1.5822060   -1.5809883   -1.5827981   0
    0  675.4135619  692.9262784    6.5198820   0.5000  -0.5000  -0.5000    1.5822060   -1.5809883   -1.5827981   0
    0  676.8602347  691.1292363    6.8878062   0.5000  -0.5000  -0.5000    1.5822060   -1.5809883   -1.5827981   0
    0  678.3561423  689.6351993    7.7523683   0.5000  -0.5000  -0.5000    1.5822060   -1.5809883   -1.5827981   0
    0  679.9191357  688.6484790    8.5071331   0.5000  -0.5000  -0.5000    1.5822060   -1.5809883   -1.5827981   0
    0  681.3667205  688.0373672    9.2449362   0.5000  -0.5000  -0.5000    1.5822060   -1.5809883   -1.5827981   0
    0  682.4627255  687.0963670    9.8152237   0.5000  -0.5000  -0.5000    1.5822060   -1.5809883   -1.5827981   0
    0  683.0918633  685.6744974    9.9010226   0.5000  -0.5000  -0.5000    1.5822060   -1.5809883   -1.5827981   0
    0  684.0645901  684.1604719   10.0405858   0.5000  -0.5000  -0.5000    1.5822060   -1.5809883   -1.5827981   0
    0  685.7465617  682.3183418   10.1364007   0.5000  -0.5000  -0.5000    1.5822060   -1.5809883   -1.5827981   0
    0  686.9915522  680.0255377    9.9514283   0.5000  -0.5000  -0.5000    1.5822060   -1.5809883   -1.5827981   0
    0  687.7085362  677.7743709   10.1829765   0.5000  -0.5000  -0.5000    1.5822060   -1.5809883   -1.5827981   0
    0  688.6343850  675.7952207   10.9905233   0.5000  -0.5000  -0.5000    1.5822060   -1.5809883   -1.5827981   0
    0  689.5773469  674.4406715   12.3390822   0.5000  -0.5000  -0.5000    1.5822060   -1.5809883   -1.5827981   0
    0  690.6472550  674.0450967   14.0004258   0.5000  -0.5000  -0.5000    1.5822060   -1.5809883   -1.5827981   0
    0  691.6761805  674.6719862   14.9072804   0.5000  -0.5000  -0.5000    1.5822060   -1.5809883   -1.5827981   0
    0  692.1635713  677.1804286   15.2267786   0.5000  -0.5000  -0.5000    1.5822060   -1.5809883   -1.5827981   0
    1  371.4166758  342.5466916  661.8975633   1.0000  -0.0000  -0.0000    3.1647942   -0.0006991   -0.0004044   0
    1  370.8522100  342.1982322  664.2745249   1.0000  -0.0000  -0.0000    3.1647942   -0.0006991   -0.0004044   0
    1  370.5937552  341.2665512  666.2464174   1.0000  -0.0000  -0.0000    3.1647942   -0.0006991   -0.0004044   0
    1  369.5965728  339.7111830  667.5374205   1.0000  -0.0000  -0.0000    3.1647942   -0.0006991   -0.0004044   0
    1  367.9550474  337.8330242  668.5756215   1.0000  -0.0000  -0.0000    3.1647942   -0.0006991   -0.0004044   0
    1  366.7039085  336.3758584  669.9828700   1.0000  -0.0000  -0.0000    3.1647942   -0.0006991   -0.0004044   0
    1  365.5319341  335.9509765  671.6791124   1.0000  -0.0000  -0.0000    3.1647942   -0.0006991   -0.0004044   0
    1  363.7955734  335.9516745  673.2329162   1.0000  -0.0000  -0.0000    3.1647942   -0.0006991   -0.0004044   0
    1  361.9409017  335.4145083  674.7045897   1.0000  -0.0000  -0.0000    3.1647942   -0.0006991   -0.0004044   0
    1  361.0110598  334.7102172  676.3852509   1.0000  -0.0000  -0.0000    3.1647942   -0.0006991   -0.0004044   0
    1  360.8691242  334.0239036  678.1251475   1.0000  -0.0000  -0.0000    3.1647942   -0.0006991   -0.0004044   0
    1  360.3736838  332.7998636  679.0961031   1.0000  -0.0000  -0.0000    3.1647942   -0.0006991   -0.0004044   0
    1  359.6008303  331.0497642  679.3406804   1.0000  -0.0000  -0.0000    3.1647942   -0.0006991   -0.0004044   0
    1  358.7240676  329.0973415  679.9807238   1.0000  -0.0000  -0.0000    3.1647942   -0.0006991   -0.0004044   0
    1  357.3533283  327.2470288  680.9667420   1.0000  -0.0000  -0.0000    3.1647942   -0.0006991   -0.0004044   0
    1  356.5677721  325.5856746  681.6593719   1.0000  -0.0000  -0.0000    3.1647942   -0.0006991   -0.0004044   0
    1  356.8945698  323.7269413  681.9825961   1.0000  -0.0000  -0.0000    3.1647942   -0.0006991   -0.0004044   0
    1  356.5316016  321.5641768  682.2452081   1.0000  -0.0000  -0.0000    3.1647942   -0.0006991   -0.0004044   0
    1  355.1263642  319.6504573  682.9584592   1.0000  -0.0000  -0.0000    3.1647942   -0.0006991   -0.0004044   0
    1  354.1779296  317.9729799  683.2059742   1.0000  -0.0000  -0.0000    3.1647942   -0.0006991   -0.0004044   0
    1  353.9773995  315.9357128  682.8614125   1.0000  -0.0000  -0.0000    3.1647942   -0.0006991   -0.0004044   0
    1  353.3867077  313.7216309  683.6469325   1.0000  -0.0000  -0.0000    3.1647942   -0.0006991   -0.0004044   0
    1  352.0162199  311.8591402  684.9824022   1.0000  -0.0000  -0.0000    3.1647942   -0.0006991   -0.0004044   0
    1  350.7250486  310.1745322  685.7876744   1.0000  -0.0000  -0.0000    3.1647942   -0.0006991   -0.0004044   0
    1  349.6066511  308.4271801  686.5351110   1.0000  -0.0000  -0.0000    3.1647942   -0.0006991   -0.0004044   0
    1  348.7211952  306.9497137  687.6184836   1.0000  -0.0000  -0.0000    3.1647942   -0.0006991   -0.0004044   0
    1  348.4626413  306.2737777  689.2579801   1.0000  -0.0000  -0.0000    3.1647942   -0.0006991   -0.0004044   0
    1  348.2644574  306.4847524  691.1996079   1.0000  -0.0000  -0.0000    3.1647942   -0.0006991   -0.0004044   0
    1  347.9202675  307.0401560  693.2149240   1.0000  -0.0000  -0.0000    3.1647942   -0.0006991   -0.0004044   0
    1  347.2824306  307.3547749  694.5560128   1.0000  -0.0000  -0.0000    3.1647942   -0.0006991   -0.0004044   0
    1  345.9899905  307.8796519  694.8273896   1.0000  -0.0000  -0.0000    3.1647942   -0.0006991   -0.0004044   0
    1  344.7912356  308.9983755  695.5753803   1.0000  -0.0000  -0.0000    3.1647942   -0.0006991   -0.0004044   0
    1  343.9497967  309.9343445  697.2679791   1.0000  -0.0000  -0.0000    3.1647942   -0.0006991   -0.0004044   0
    1  342.7764545  310.6377064  698.8480313   1.0000  -0.0000  -0.0000    3.1647942   -0.0006991   -0.0004044   0
    1  341.2508317  311.6992763  699.9903415   1.0000  -0.0000  -0.0000    3.1647942   -0.0006991   -0.0004044   0
    1  339.8193951  313.0377745  700.9919642   1.0000  -0.0000  -0.0000    3.1647942   -0.0006991   -0.0004044   0
    1  338.5586098  314.2466278  702.2937703   1.0000  -0.0000  -0.0000    3.1647942   -0.0006991   -0.0004044   0
    1  337.0459893  315.0249235  703.5854218   1.0000  -0.0000  -0.0000    3.1647942   -0.0006991   -0.0004044   0
    1  335.2432199  315.0969785  704.5209638   1.0000  -0.0000  -0.0000    3.1647942   -0.0006991   -0.0004044   0
    1  333.8131570  314.6735562  705.5561617   1.0000  -0.0000  -0.0000    3.1647942   -0.0006991   -0.0004044   0
    1  332.7696084  314.3688836  706.9472494   1.0000  -0.0000  -0.0000    3.1647942   -0.0006991   -0.0004044   0
    1  331.4694883  314.2127046  708.7005847   1.0000  -0.0000  -0.0000    3.1647942   -0.0006991   -0.0004044   0
    1  329.7038760  314.1660173  710.3481256   1.0000  -0.0000  -0.0000    3.1647942   -0.0006991   -0.0004044   0
    1  328.0401700  314.6307454  711.6132024   1.0000  -0.0000  -0.0000    3.1647942   -0.0006991   -0.0004044   0
    1  327.1563109  315.4226831  712.9119115   1.0000  -0.0000  -0.0000    3.1647942   -0.0006991   -0.0004044   0
    1  326.4505854  316.1061276  714.6061726   1.0000  -0.0000  -0.0000    3.1647942   -0.0006991   -0.0004044   0
    1  324.8711428  317.0300535  716.6188472   1.0000  -0.0000  -0.0000    3.1647942   -0.0006991   -0.0004044   0
    2  419.0777869  496.7106595  587.1091607   0.5000  -0.5000  -0.5000    1.5822060   -1.5809883   -1.5827981   0
    2  416.8126256  495.1155014  586.2702533   0.5000  -0.5000  -0.5000    1.5822060   -1.5809883   -1.5827981   0
    2  415.3386046  492.7057411  586.2600521   0.5000  -0.5000  -0.5000    1.5822060   -1.5809883   -1.5827981   0
    2  414.9656527  491.4091176  587.0201283   0.5000  -0.5000  -0.5000    1.5822060   -1.5809883   -1.5827981   0
    2  415.8107187  491.1273602  588.8247953   0.5000  -0.5000  -0.5000    1.5822060   -1.5809883   -1.5827981   0
    2  416.4387752  490.1341844  591.1488695   0.5000  -0.5000  -0.5000    1.5822060   -1.5809883   -1.5827981   0
    2  417.0118689  488.5570389  592.6857071   0.5000  -0.5000  -0.5000    1.5822060   -1.5809883   -1.5827981   0
    2  418.0365566  487.9341584  593.8028292   0.5000  -0.5000  -0.5000    1.5822060   -1.5809883   -1.5827981   0
    2  418.6402319  488.3831836  595.6556098   0.5000  -0.5000  -0.5000    1.5822060   -1.5809883   -1.5827981   0
    2  419.4994580  488.5543341  597.8265177   0.5000  -0.5000  -0.5000    1.5822060   -1.5809883   -1.5827981   0
    2  420.7492877  487.7998427  599.8285448   0.5000  -0.5000  -0.5000    1.5822060   -1.5809883   -1.5827981   0
    2  421.4142407  487.5123329  601.5082599   0.5000  -0.5000  -0.5000    1.5822060   -1.5809883   -1.5827981   0
    2  422.1016280  488.7647396  602.0915245   0.5000  -0.5000  -0.5000    1.5822060   -1.5809883   -1.5827981   0
    2  423.9194044  489.9567674  602.1378774   0.5000  -0.5000  -0.5000    1.5822060   -1.5809883   -1.5827981   0
    2  425.9217755  490.8599174  602.4359480   0.5000  -0.5000  -0.5000    1.5822060   -1.5809883   -1.5827981   0
    2  426.7921960  492.8121227  602.7951764   0.5000  -0.5000  -0.5000    1.5822060   -1.5809883   -1.5827981   0
    2  426.6793160  494.7897378  602.9821859   0.5000  -0.5000  -0.5000    1.5822060   -1.5809883   -1.5827981   0
    2  425.7747796  495.7385292  602.1562336   0.5000  -0.5000  -0.5000    1.5822060   -1.5809883   -1.5827981   0
    2  424.5620538  496.5005380  600.1703718   0.5000  -0.5000  -0.5000    1.5822060   -1.5809883   -1.5827981   0
    2  423.5387330  497.0915821  598.0030663   0.5000  -0.5000  -0.5000    1.5822060   -1.5809883   -1.5827981   0
    2  422.5201280  496.5385848  596.5151630   0.5000  -0.5000  -0.5000    1.5822060   -1.5809883   -1.5827981   0
    2  421.4329666  495.3898643  595.2929811   0.5000  -0.5000  -0.5000    1.5822060   -1.5809883   -1.5827981   0
    2  420.6835824  495.0001619  593.1588381   0.5000  -0.5000  -0.5000    1.5822060   -1.5809883   -1.5827981   0
    2  420.1653883  495.5582839  590.2173336   0.5000  -0.5000  -0.5000    1.5822060   -1.5809883   -1.5827981   0