ITEM: TIMESTEP
0
ITEM: NUMBER OF ATOMS
9819
ITEM: BOX BOUNDS pp pp pp 
0.0 696.371432
0.0 696.607629
0.0 697.718066
ITEM: ATOMS id x y z tbx tby tbz sbx sby sbz loop
    0  405.1699838  616.8364601  583.9559063   0.5000  -0.5000  -0.5000    1.5832170   -1.5810991   -1.5825971   0
    0  408.2231212  620.8250657  582.3938408   0.5000  -0.5000  -0.5000    1.5832170   -1.5810991   -1.5825971   0
    0  409.6123866  622.9487963  582.2352344   0.5000  -0.5000  -0.5000    1.5832170   -1.5810991   -1.5825971   0
    0  410.1959112  624.6717507  582.0115670   0.5000  -0.5000  -0.5000    1.5832170   -1.5810991   -1.5825971   0
    0  410.4739644  626.2109332  580.5975724   0.5000  -0.5000  -0.5000    1.5832170   -1.5810991   -1.5825971   0
    0  410.7397493  627.2846814  578.4912754   0.5000  -0.5000  -0.5000    1.5832170   -1.5810991   -1.5825971   0
    0  410.8676343  628.3243521  576.2177618   0.5000  -0.5000  -0.5000    1.5832170   -1.5810991   -1.5825971   0
    0  410.3895902  629.3694749  574.1178450   0.5000  -0.5000  -0.5000    1.5832170   -1.5810991   -1.5825971   0
    0  409.5329432  630.1751736  571.8297011   0.5000  -0.5000  -0.5000    1.5832170   -1.5810991   -1.5825971   0
    0  408.7405474  630.3127638  569.6435311   0.5000  -0.5000  -0.5000    1.5832170   -1.5810991   -1.5825971   0
    0  407.9540699  629.2561390  568.0457092   0.5000  -0.5000  -0.5000    1.5832170   -1.5810991   -1.5825971   0
    0  407.2327705  627.8783592  566.8820634   0.5000  -0.5000  -0.5000    1.5832170   -1.5810991   -1.5825971   0
    0  406.6049987  626.8792503  566.9155139   0.5000  -0.5000  -0.5000    1.5832170   -1.5810991   -1.5825971   0
    0  405.6437827  625.5263366  568.0445404   0.5000  -0.5000  -0.5000    1.5832170   -1.5810991   -1.5825971   0
    0  404.5698400  623.9175152  569.1690517   0.5000  -0.5000  -0.5000    1.5832170   -1.5810991   -1.5825971   0
    0  403.5675461  622.7175010  570.1788952   0.5000  -0.5000  -0.5000    1.5832170   -1.5810991   -1.5825971   0
    0  402.5949722  621.6839103  571.4258576   0.5000  -0.5000  -0.5000    1.5832170   -1.5810991   -1.5825971   0
    0  401.1276147  620.4831516  572.4598061   0.5000  -0.5000  -0.5000    1.5832170   -1.5810991   -1.5825971   0
    0  399.0456749  619.6582853  572.2102287   0.5000  -0.5000  -0.5000    1.5832170   -1.5810991   -1.5825971   0
    0  399.0994765  619.7052915  572.2052713   0.5000  -0.5000  -0.5000    1.5832170   -1.5810991   -1.5825971   0
    0  401.7605208  619.7161287  573.9572880   0.5000  -0.5000  -0.5000    1.5832170   -1.5810991   -1.5825971   0
    0  403.6927122  618.5015537  576.2011909   0.5000  -0.5000  -0.5000    1.5832170   -1.5810991   -1.5825971   0
    0  403.7091652  617.3809818  578.0201681   0.5000  -0.5000  -0.5000    1.5832170   -1.5810991   -1.5825971   0
    0  403.6544271  617.3499880  580.1743889   0.5000  -0.5000  -0.5000    1.5832170   -1.5810991   -1.5825971   0
    0  405.1699838  616.8364601  583.9559063   0.5000  -0.5000  -0.5000    1.5832170   -1.5810991   -1.5825971   0
    1  332.6171532   72.4990055  464.7357668   0.5000   0.5000  -0.5000    1.5826423    1.5837622   -1.5828466   0
    1  330.9626260   73.9378745  464.1414679   0.5000   0.5000  -0.5000    1.5826423    1.5837622   -1.5828466   0
    1  328.8759766   73.7769003  464.2387985   0.5000   0.5000  -0.5000    1.5826423    1.5837622   -1.5828466   0
    1  327.1748657   71.9479197  465.2879377   0.5000   0.5000  -0.5000    1.5826423    1.5837622   -1.5828466   0
    1  326.5164089   69.7447893  465.2561741   0.5000   0.5000  -0.5000    1.5826423    1.5837622   -1.5828466   0
    1  326.3661904   67.7471408  463.8157026   0.5000   0.5000  -0.5000    1.5826423    1.5837622   -1.5828466   0
    1  326.6282336   65.4490908  463.0658313   0.5000   0.5000  -0.5000    1.5826423    1.5837622   -1.5828466   0
    1  327.9761678   63.5140284  463.6562577   0.5000   0.5000  -0.5000    1.5826423    1.5837622   -1.5828466   0
    1  330.1782210   62.4180047  464.6583079   0.5000   0.5000  -0.5000    1.5826423    1.5837622   -1.5828466   0
    1  332.6748738   61.9048496  465.4236164   0.5000   0.5000  -0.5000    1.5826423    1.5837622   -1.5828466   0
    1  334.2371051   61.7757878  466.6603466   0.5000   0.5000  -0.5000    1.5826423    1.5837622   -1.5828466   0
    1  333.8140943   62.0969181  468.5142080   0.5000   0.5000  -0.5000    1.5826423    1.5837622   -1.5828466   0
    1  333.0135185   62.4575890  470.2027762   0.5000   0.5000  -0.5000    1.5826423    1.5837622   -1.5828466   0
    1  333.1768273   62.1404218  471.7769900   0.5000   0.5000  -0.5000    1.5826423    1.5837622   -1.5828466   0
    1  333.3519229   61.6356299  473.4872380   0.5000   0.5000  -0.5000    1.5826423    1.5837622   -1.5828466   0
    1  332.9207935   61.9401850  474.6952000   0.5000   0.5000  -0.5000    1.5826423    1.5837622   -1.5828466   0
    1  332.4880611   63.3470579  474.9961301   0.5000   0.5000  -0.5000    1.5826423    1.5837622   -1.5828466   0
    1  332.0602709   65.1073456  475.0537879   0.5000   0.5000  -0.5000    1.5826423    1.5837622   -1.5828466   0
    1  331.1892701   66.8763524  475.3412464   0.5000   0.5000  -0.5000    1.5826423    1.5837622   -1.5828466   0
    1  329.9927290   68.9301169  475.9062871   0.5000   0.5000  -0.5000    1.5826423    1.5837622   -1.5828466   0
    1  329.0483454   70.9222550  475.8369591   0.5000   0.5000  -0.5000    1.5826423    1.5837622   -1.5828466   0
    1  328.4516281   72.4454233  474.1958073   0.5000   0.5000  -0.5000    1.5826423    1.5837622   -1.5828466   0
    1  327.6711214   74.0914373  472.2022309   0.5000   0.5000  -0.5000    1.5826423    1.5837622   -1.5828466   0
    1  327.0206967   75.3003419  470.5454694   0.5000   0.5000  -0.5000    1.5826423    1.5837622   -1.5828466   0
    1  328.3441737   74.5834890  468.0878886   0.5000   0.5000  -0.5000    1.5826423    1.5837622   -1.5828466   0
    1  332.6171532   72.4990055  464.7357668   0.5000   0.5000  -0.5000    1.5826423    1.5837622   -1.5828466   0
    2  346.1594214  671.0341342  451.3744954  -0.5000   0.5000   0.5000   -1.5832170    1.5810991    1.5825971   0
    2  347.6455660  668.7348217  452.6148316  -0.5000   0.5000   0.5000   -1.5832170    1.5810991    1.5825971   0
    2  348.8699981  667.0070079  453.8669615  -0.5000   0.5000   0.5000   -1.5832170    1.5810991    1.5825971   0
    2  350.4129455  665.6602466  455.1770388  -0.5000   0.5000   0.5000   -1.5832170    1.5810991    1.5825971   0
    2  352.2816498  664.0923882  456.1845861  -0.5000   0.5000   0.5000   -1.5832170    1.5810991    1.5825971   0
    2  353.8796929  662.3585100  456.5151511  -0.5000   0.5000   0.5000   -1.5832170    1.5810991    1.5825971   0
    2  355.4780940  661.4720706  456.5918025  -0.5000   0.5000   0.5000   -1.5832170    1.5810991    1.5825971   0
    2  357.4076146  661.5906079  457.1009403  -0.5000   0.5000   0.5000   -1.5832170    1.5810991    1.5825971   0
    2  359.3018928  661.3525616  458.2430065  -0.5000   0.5000   0.5000   -1.5832170    1.5810991    1.5825971   0
    2  361.0802337  660.8636920  459.7275060  -0.5000   0.5000   0.5000   -1.5832170    1.5810991    1.5825971   0
    2  363.0553032  661.2393070  461.0315379  -0.5000   0.5000   0.5000   -1.5832170    1.5810991    1.5825971   0
    2  365.3915820  662.5233253  462.1779677  -0.5000   0.5000   0.5000   -1.5832170    1.5810991    1.5825971   0
    2  366.5915080  663.5933475  463.0407080  -0.5000   0.5000   0.5000   -1.5832170    1.5810991    1.5825971   0
    2  365.8420025  662.9114415  463.7246812  -0.5000   0.5000   0.5000   -1.5832170    1.5810991    1.5825971   0
    2  365.2245280  661.6395387  465.6232068  -0.5000   0.5000   0.5000   -1.5832170    1.5810991    1.5825971   0
    2  365.3017036  661.1937496  468.3613890  -0.5000   0.5000   0.5000   -1.5832170    1.5810991    1.5825971   0
    2  365.1608933  660.1620465  469.8816566  -0.5000   0.5000   0.5000   -1.5832170    1.5810991    1.5825971   0
    2  365.2707829  658.5920109  470.6404140  -0.5000   0.5000   0.5000   -1.5832170    1.5810991    1.5825971   0
    2  365.7391172  658.5336619  471.9461294  -0.5000   0.5000   0.5000   -1.5832170    1.5810991    1.5825971   0
    2  366.2201227  659.4669965  473.7193490  -0.5000   0.5000   0.5000   -1.5832170    1.5810991    1.5825971   0
    2  366.9580676  659.7417450  475.8548735  -0.5000   0.5000   0.5000   -1.5832170    1.5810991    1.5825971   0
    2  367.8826411  659.9612761  478.0413301  -0.5000   0.5000   0.5000   -1.5832170    1.5810991    1.5825971   0
    2  368.7532884  661.0430638  479.5078304  -0.5000   0.5000   0.5000   -1.5832170    1.5810991    1.5825971   0
    2  369.5901357  662.4138461  480.8266140  -0.5000   0.5000   0.5000   -1.5832170    1.5810991    1.5825971   0
    2  370.5336818  662.8274419  482.9663185  -0.5000   0.5000   0.5000   -1.5832170    1.5810991    1.5825971   0
    2  370.8200723  662.0059893  484.8784765  -0.5000   0.5000   0.5000   -1.5832170    1.5810991    1.5825971   0
    2  370.3075731  660.8215188  486.2566673  -0.5000   0.5000   0.5000   -1.5832170    1.5810991    1.5825971   0
    2  370.0041328  659.6051696  488.2597524  -0.5000   0.5000   0.5000   -1.5832170    1.5810991    1.5825971   0
    2  369.2548074  658.2226809  490.0928690  -0.5000   0.5000   0.5000   -1.5832170    1.5810991    1.5825971   0
    2  367.5136338  656.8703103  490.5806364  -0.5000   0.5000   0.5000   -1.5832170    1.5810991    1.5825971   0
    2  365.6570864  655.4310987  490.7012596  -0.5000   0.5000   0.5000   -1.5832170    1.5810991    1.5825971   0
    2  363.9236635  654.0093589  491.6033769  -0.5000   0.5000   0.5000   -1.5832170    1.5810991    1.5825971   0
    2  362.7595043  652.8440943  493.1094952  -0.5000   0.5000   0.5000   -1.5832170    1.5810991    1.5825971   0
    2  362.4028705  652.1242385  494.5276713  -0.5000   0.5000   0.5000   -1.5832170    1.5810991    1.5825971   0
    2  361.9768029  651.6778859  495.8831161  -0.5000   0.5000   0.5000   -1.5832170    1.5810991    1.5825971   0
    2  361.5708416  650.6141126  497.5453064  -0.5000   0.5000   0.5000   -1.5832170    1.5810991    1.5825971   0
    2  361.4813743  649.3553547  499.9577306  -0.5000   0.5000   0.5000   -1.5832170    1.5810991    1.5825971   0
    2  361.2844129  648.6647551  502.9791980  -0.5000   0.5000   0.5000   -1.5832170    1.5810991    1.5825971   0
    2  361.0640420  648.5321783  505.3609073  -0.5000   0.5000   0.5000   -1.5832170    1.5810991    1.5825971   0
    2  361.8219734  648.5677188  507.2729600  -0.5000   0.5000   0.5000   -1.5832170    1.5810991    1.5825971   0
    2  363.2036859  648.6646892  509.2956555  -0.5000   0.5000   0.5000   -1.5832170    1.5810991    1.5825971   0
    2  363.4389232  649.0168746  511.0860258  -0.5000   0.5000   0.5000   -1.5832170    1.5810991    1.5825971   0
    2  362.8552552  648.7589835  512.8085827  -0.5000   0.5000   0.5000   -1.5832170    1.5810991    1.5825971   0
    2  362.5311262  648.3206885  515.0036505  -0.5000   0.5000   0.5000   -1.5832170    1.5810991    1.5825971   0
    2  362.2481343  648.6999906  517.7910431  -0.5000   0.5000   0.5000   -1.5832170    1.5810991    1.5825971   0
    2  362.0758176  649.0812953  520.5404841  -0.5000   0.5000   0.5000   -1.5832170    1.5810991    1.5825971   0
    2  361.7435034  648.9321181  522.8033427  -0.5000   0.5000   0.5000   -1.5832170    1.5810991    1.5825971   0
    2  360.5902506  648.7453274  524.7712929  -0.5000   0.5000   0.5000   -1.5832170    1.5810991    1.5825971   0
    2  359.0323909  648.5701565  526.3701708  -0.5000   0.5000   0.5000   -1.5832170    1.5810991    1.5825971   0
    2  357.7636567  647.7907399  527.4563924  -0.5000   0.5000   0.5000   -1.5832170    1.5810991    1.5825971   0
    2  356.6524442  647.0046460  528.6408060  -0.5000   0.5000   0.5000   -1.5832170    1.5810991    1.5825971   0
    2  355.6272577  646.6736989  530.3561815  -0.5000   0.5000   0.5000   -1.5832170    1.5810991    1.5825971   0
    2  355.6857421  646.0914758  532.4759948  -0.5000   0.5000   0.5000   -1.5832170    1.5810991    1.5825971   0
    2  356.7020521  645.9905480  534.5585090  -0.5000   0.5000   0.5000   -1.5832170    1.5810991    1.5825971   0
    2  357.6286392  646.4152447  536.4302607  -0.5000   0.5000   0.5000   -1.5832170    1.5810991    1.5825971   0
    2  358.3115511  646.4392212  538.4042872  -0.5000   0.5000   0.5000   -1.5832170    1.5810991    1.5825971   0
    2  359.1474354  646.5130829  540.2810727  -0.5000   0.5000   0.5000   -1.5832170    1.5810991    1.5825971   0
    2  360.4547056  646.5299406  542.0861647  -0.5000   0.5000   0.5000   -1.5832170    1.5810991    1.5825971   0
    2  361.4638361  646.4085739  544.2527908  -0.5000   0.5000   0.5000   -1.5832170    1.5810991    1.5825971   0
    2  361.7756594  646.4027698  546.2868834  -0.5000   0.5000   0.5000   -1.5832170    1.5810991    1.5825971   0
    2  362.1258891  645.8190992  548.1258016  -0.5000   0.5000   0.5000   -1.5832170    1.5810991    1.5825971   0
    2  362.3051826  645.2373874  550.4614002  -0.5000   0.5000   0.5000   -1.5832170    1.5810991    1.5825971   0
    2  361.1234181  645.3432901  552.5030462  -0.5000   0.5000   0.5000   -1.5832170    1.5810991    1.5825971   0
    2  358.8498137  645.1650857  552.9732964  -0.5000   0.5000   0.5000   -1.5832170    1.5810991    1.5825971   0
    2  356.8336428  644.5147931  552.3971716  -0.5000   0.5000   0.5000   -1.5832170    1.5810991    1.5825971   0
    2  355.0319467  643.5658724  551.7869919  -0.5000   0.5000   0.5000   -1.5832170    1.5810991    1.5825971   0
    2  353.5259858  642.8790221  550.6729888  -0.5000   0.5000   0.5000   -1.5832170    1.5810991    1.5825971   0
    2  352.8876932  643.5304684  548.7953461  -0.5000   0.5000   0.5000   -1.5832170    1.5810991    1.5825971   0
    2  352.0876668  644.4161699  547.5731611  -0.5000   0.5000   0.5000   -1.5832170    1.5810991    1.5825971   0
    2  350.5018777  644.5274279  547.3965717  -0.5000   0.5000   0.5000   -1.5832170    1.5810991    1.5825971   0
    2  348.9260613  644.6013746  546.9537208  -0.5000   0.5000   0.5000   -1.5832170    1.5810991    1.5825971   0
    2  347.1966055  644.3991209  546.1537901  -0.5000   0.5000   0.5000   -1.5832170    1.5810991    1.5825971   0
    2  345.0206466  643.7572559  545.5472489  -0.5000   0.5000   0.5000   -1.5832170    1.5810991    1.5825971   0
    2  342.8066448  643.3520364  544.9840905  -0.5000   0.5000   0.5000   -1.5832170    1.5810991    1.5825971   0
    2  340.7173791  643.0000012  545.0072312  -0.5000   0.5000   0.5000   -1.5832170    1.5810991    1.5825971   0
    2  339.2531723  641.8762490  545.9754181  -0.5000   0.5000   0.5000   -1.5832170    1.5810991    1.5825971   0
    2  338.2355685  640.2116241  546.7939371  -0.5000   0.5000   0.5000   -1.5832170    1.5810991    1.5825971   0
    2  336.6878714  639.5806568  546.7037971  -0.5000   0.5000   0.5000   -1.5832170    1.5810991    1.5825971   0
    2  334.7376900  640.5839338  545.8738363  -0.5000   0.5000   0.5000   -1.5832170    1.5810991    1.5825971   0
    2  333.0688429  641.5663877  544.8293135  -0.5000   0.5000   0.5000   -1.5832170    1.5810991    1.5825971   0
    2  331.6053707  641.1116578  543.8030874  -0.5000   0.5000   0.5000   -1.5832170    1.5810991    1.5825971   0
    2  329.7245088  639.9494789  543.1985360  -0.5000   0.5000   0.5000   -1.5832170    1.5810991    1.5825971   0
    2  327.6709120  639.2481939  542.8374535  -0.5000   0.5000   0.5000   -1.5832170    1.5810991    1.5825971   0
    2  326.2092316  639.2830748  541.1486574  -0.5000   0.5000   0.5000   -1.5832170    1.5810991    1.5825971   0
    2  324.6557035  639.4928951  538.8941031  -0.5000   0.5000   0.5000   -1.5832170    1.5810991    1.5825971   0
    2  322.6251011  638.9297979  537.4905342  -0.5000   0.5000   0.5000   -1.5832170    1.5810991    1.5825971   0
    2  320.8885241  638.0087978  536.3509608  -0.5000   0.5000   0.5000   -1.5832170    1.5810991    1.5825971   0
    2  319.5635863  637.9090441  535.1663857  -0.5000   0.5000   0.5000   -1.5832170    1.5810991    1.5825971   0
    2  318.5264853  638.5968248  533.9846654  -0.5000   0.5000   0.5000   -1.5832170    1.5810991    1.5825971   0
    2  316.8768150  638.4405856  532.8125024  -0.5000   0.5000   0.5000   -1.5832170    1.5810991    1.5825971   0
    2  313.6421442  636.0533045  531.6183635  -0.5000   0.5000   0.5000   -1.5832170    1.5810991    1.5825971   0
    3  542.4091667  650.4171112  -14.7911770   1.0000  -0.0000  -0.0000    3.1647951   -0.0009523   -0.0006151   0
    3  543.9282117  649.5684259  -12.5246468   1.0000  -0.0000  -0.0000    3.1647951   -0.0009523   -0.0006151   0
    3  544.9266696  648.4993983  -11.0241878   1.0000  -0.0000  -0.0000    3.1647951   -0.0009523   -0.0006151   0
    3  545.5172965  647.3068622   -9.5088974   1.0000  -0.0000  -0.0000    3.1647951   -0.0009523   -0.0006151   0
    3  546.5228360  646.0462265   -8.2787474   1.0000  -0.0000  -0.0000    3.1647951   -0.0009523   -0.0006151   0
    3  548.0868034  644.9812241   -7.3043524   1.0000  -0.0000  -0.0000    3.1647951   -0.0009523   -0.0006151   0
    3  550.1577787  644.2047524   -5.8489705   1.0000  -0.0000  -0.0000    3.1647951   -0.0009523   -0.0006151   0
    3  551.8028610  643.2395764   -4.2211145   1.0000  -0.0000  -0.0000    3.1647951   -0.0009523   -0.0006151   0
    3  552.1903668  641.9734895   -2.7185693   1.0000  -0.0000  -0.0000    3.1647951   -0.0009523   -0.0006151   0
    3  552.8112949  640.5347869   -1.7708886   1.0000  -0.0000  -0.0000    3.1647951   -0.0009523   -0.0006151   0
    3  554.1796536  638.4717630   -1.8441835   1.0000  -0.0000  -0.0000    3.1647951   -0.0009523   -0.0006151   0
    3  555.0467616  635.9293702   -1.9885348   1.0000  -0.0000  -0.0000    3.1647951   -0.0009523   -0.0006151   0
    3  555.1755113  633.6883110   -1.2581627   1.0000  -0.0000  -0.0000    3.1647951   -0.0009523   -0.0006151   0
    3  555.7182188  632.5822888   -0.0791454   1.0000  -0.0000  -0.0000    3.1647951   -0.0009523   -0.0006151   0
    3  557.2386437  632.6321421    0.9894950   1.0000  -0.0000  -0.0000    3.1647951   -0.0009523   -0.0006151   0
    3  558.5049431  632.7774659    2.2297744   1.0000  -0.0000  -0.0000    3.1647951   -0.0009523   -0.0006151   0
    3  559.1295682  632.7363816    4.3633347   1.0000  -0.0000  -0.0000    3.1647951   -0.0009523   -0.0006151   0
    3  560.0205634  632.7473321    6.9474677   1.0000  -0.0000  -0.0000    3.1647951   -0.0009523   -0.0006151   0
    3  561.6340354  632.2528421    8.9436067   1.0000  -0.0000  -0.0000    3.1647951   -0.0009523   -0.0006151   0
    3  563.5033801  630.8658783   10.0740071   1.0000  -0.0000  -0.0000    3.1647951   -0.0009523   -0.0006151   0
    3  564.7811360  629.8987357   10.9742046   1.0000  -0.0000  -0.0000    3.1647951   -0.0009523   -0.0006151   0
    3  565.6831477  630.0446286   12.4856706   1.0000  -0.0000  -0.0000    3.1647951   -0.0009523   -0.0006151   0
    3  566.9448554  630.0315000   14.1674919   1.0000  -0.0000  -0.0000    3.1647951   -0.0009523   -0.0006151   0
    3  568.3773437  629.2610688   15.4936358   1.0000  -0.0000  -0.0000    3.1647951   -0.0009523   -0.0006151   0
    3  569.6393458  628.6106187   16.8516996   1.0000  -0.0000  -0.0000    3.1647951   -0.0009523   -0.0006151   0
    3  571.1203056  628.6503451   18.3248343   1.0000  -0.0000  -0.0000    3.1647951   -0.0009523   -0.0006151   0
    3  572.7066210  628.5647996   19.7988830   1.0000  -0.0000  -0.0000    3.1647951   -0.0009523   -0.0006151   0
    3  573.7792256  628.6263083   21.2824733   1.0000  -0.0000  -0.0000    3.1647951   -0.0009523   -0.0006151   0
    3  574.8435217  629.5077140   22.5079884   1.0000  -0.0000  -0.0000    3.1647951   -0.0009523   -0.0006151   0
    3  576.5038907  630.1045630   23.6745196   1.0000  -0.0000  -0.0000    3.1647951   -0.0009523   -0.0006151   0
    3  577.9312740  630.0249854   25.2900360   1.0000  -0.0000  -0.0000    3.1647951   -0.0009523   -0.0006151   0
    3  578.7101944  630.2414645   27.0318038   1.0000  -0.0000  -0.0000    3.1647951   -0.0009523   -0.0006151   0
    3  579.8123658  630.9419946   28.2996178   1.0000  -0.0000  -0.0000    3.1647951   -0.0009523   -0.0006151   0
    3  581.7800278  631.3029167   29.2819333   1.0000  -0.0000  -0.0000    3.1647951   -0.0009523   -0.0006151   0
    4  613.2609152  238.7196454  615.4117606  -0.5000   0.5000   0.5000   -1.5832170    1.5810991    1.5825971   1
    4  613.2062710  239.6372566  614.8769636  -0.5000   0.5000   0.5000   -1.5832170    1.5810991    1.5825971   1
    4  613.0404138  241.7157906  613.6574671  -0.5000   0.5000   0.5000   -1.5832170    1.5810991    1.5825971   1
    4  613.2605736  243.6043629  612.0708307  -0.5000   0.5000   0.5000   -1.5832170    1.5810991    1.5825971   1
    4  613.0769569  245.3419566  610.7992762  -0.5000   0.5000   0.5000   -1.5832170    1.5810991    1.5825971   1
    4  612.5373666  247.2624239  609.7681488  -0.5000   0.5000   0.5000   -1.5832170    1.5810991    1.5825971   1
    4  611.8892814  249.3611282  608.8518871  -0.5000   0.5000   0.5000   -1.5832170    1.5810991    1.5825971   1
    4  611.0792988  251.3944873  608.0187961  -0.5000   0.5000   0.5000   -1.5832170    1.5810991    1.5825971   1
    4  610.6414023  253.7135597  607.5732275  -0.5000   0.5000   0.5000   -1.5832170    1.5810991    1.5825971   1
    4  611.0302753  256.0219013  607.4869905  -0.5000   0.5000   0.5000   -1.5832170    1.5810991    1.5825971   1
    4  612.0265380  257.7327564  607.7354336  -0.5000   0.5000   0.5000   -1.5832170    1.5810991    1.5825971   1
    4  613.3571370  259.0720229  608.4502515  -0.5000   0.5000   0.5000   -1.5832170    1.5810991    1.5825971   1
    4  615.3396172  260.1950349  608.9896904  -0.5000   0.5000   0.5000   -1.5832170    1.5810991    1.5825971   1
    4  617.3411566  260.9224602  609.8254530  -0.5000   0.5000   0.5000   -1.5832170    1.5810991    1.5825971   1
    4  618.8289390  261.1474578  611.2809264  -0.5000   0.5000   0.5000   -1.5832170    1.5810991    1.5825971   1
    4  620.1604739  260.7672587  612.6487205  -0.5000   0.5000   0.5000   -1.5832170    1.5810991    1.5825971   1
    4  621.3618767  259.5485081  613.5050397  -0.5000   0.5000   0.5000   -1.5832170    1.5810991    1.5825971   1
    4  622.5751553  257.6860443  613.8419778  -0.5000   0.5000   0.5000   -1.5832170    1.5810991    1.5825971   1
    4  623.3606940  255.8275941  613.8594360  -0.5000   0.5000   0.5000   -1.5832170    1.5810991    1.5825971   1
    4  623.1188769  253.9172040  613.6412540  -0.5000   0.5000   0.5000   -1.5832170    1.5810991    1.5825971   1
    4  622.2144835  251.4750472  614.0343747  -0.5000   0.5000   0.5000   -1.5832170    1.5810991    1.5825971   1
    4  621.5938749  248.9576246  614.8347058  -0.5000   0.5000   0.5000   -1.5832170    1.5810991    1.5825971   1
    4  621.3414611  246.7824548  615.2363674  -0.5000   0.5000   0.5000   -1.5832170    1.5810991    1.5825971   1
    4  620.9118465  244.6365407  615.6388003  -0.5000   0.5000   0.5000   -1.5832170    1.5810991    1.5825971   1
    4  620.0161058  242.5053039  616.4401140  -0.5000   0.5000   0.5000   -1.5832170    1.5810991    1.5825971   1
    4  619.0500485  240.9642499  617.1535312  -0.5000   0.5000   0.5000   -1.5832170    1.5810991    1.5825971   1
    4  617.9584682  239.9836797  616.8206388  -0.5000   0.5000   0.5000   -1.5832170    1.5810991    1.5825971   1
    4  615.8902799  239.9433465  616.0054548  -0.5000   0.5000   0.5000   -1.5832170    1.5810991    1.5825971   1
    4  614.1764027  239.9791069  615.6756844  -0.5000   0.5000   0.5000   -1.5832170    1.5810991    1.5825971   1
    4  613.2609152  238.7196455  615.4117608  -0.5000   0.5000   0.5000   -1.5832170    1.5810991    1.5825971   1
    5  623.8413333  185.7819126  618.4506032  -0.0000  -0.0000   1.0000   -0.0010643   -0.0036154    3.1648286   0
    5  624.5931544  188.0148078  618.2812497  -0.0000  -0.0000   1.0000   -0.0010643   -0.0036154    3.1648286   0
    5  625.6716902  189.9009089  617.8604246  -0.0000  -0.0000   1.0000   -0.0010643   -0.0036154    3.1648286   0
    5  626.8695007  191.8779276  617.2624020  -0.0000  -0.0000   1.0000   -0.0010643   -0.0036154    3.1648286   0
    5  628.3349251  193.8495381  616.8553920  -0.0000  -0.0000   1.0000   -0.0010643   -0.0036154    3.1648286   0
    5  629.6952664  195.6601235  616.5927070  -0.0000  -0.0000   1.0000   -0.0010643   -0.0036154    3.1648286   0
    5  630.8413443  197.5716511  616.1506126  -0.0000  -0.0000   1.0000   -0.0010643   -0.0036154    3.1648286   0
    5  632.0065363  199.5075488  615.5847609  -0.0000  -0.0000   1.0000   -0.0010643   -0.0036154    3.1648286   0
    5  633.2463536  201.3279347  615.3835844  -0.0000  -0.0000   1.0000   -0.0010643   -0.0036154    3.1648286   0
    5  634.9388719  202.9922862  615.5563220  -0.0000  -0.0000   1.0000   -0.0010643   -0.0036154    3.1648286   0
    5  636.3607363  204.7049563  616.1349862  -0.0000  -0.0000   1.0000   -0.0010643   -0.0036154    3.1648286   0
    5  637.0945594  206.4988732  617.2246997  -0.0000  -0.0000   1.0000   -0.0010643   -0.0036154    3.1648286   0
    5  638.0456395  208.2376480  617.6213778  -0.0000  -0.0000   1.0000   -0.0010643   -0.0036154    3.1648286   0
    5  639.2272519  210.5365847  617.1379734  -0.0000  -0.0000   1.0000   -0.0010643   -0.0036154    3.1648286   0
    5  640.2688914  213.1571647  616.7168736  -0.0000  -0.0000   1.0000   -0.0010643   -0.0036154    3.1648286   0
    5  641.2249035  215.1201135  616.4607424  -0.0000  -0.0000   1.0000   -0.0010643   -0.0036154    3.1648286   0
    5  642.4449965  216.7631455  616.2842185  -0.0000  -0.0000   1.0000   -0.0010643   -0.0036154    3.1648286   0
    5  643.8240704  218.5485010  616.2221872  -0.0000  -0.0000   1.0000   -0.0010643   -0.0036154    3.1648286   0
    5  644.2916975  220.3246516  616.2200126  -0.0000  -0.0000   1.0000   -0.0010643   -0.0036154    3.1648286   0
    5  643.7458930  222.2230125  616.3861446  -0.0000  -0.0000   1.0000   -0.0010643   -0.0036154    3.1648286   0
    5  643.2392264  224.4896236  616.7318855  -0.0000  -0.0000   1.0000   -0.0010643   -0.0036154    3.1648286   0
    5  643.3601177  226.7762717  616.8888164  -0.0000  -0.0000   1.0000   -0.0010643   -0.0036154    3.1648286   0
    5  643.7433012  228.8372033  616.6444399  -0.0000  -0.0000   1.0000   -0.0010643   -0.0036154    3.1648286   0
    5  644.3253136  230.9649895  615.9692364  -0.0000  -0.0000   1.0000   -0.0010643   -0.0036154    3.1648286   0
    5  645.5449975  233.1229468  615.3985054  -0.0000  -0.0000   1.0000   -0.0010643   -0.0036154    3.1648286   0
    5  646.5990825  235.0878585  615.1891248  -0.0000  -0.0000   1.0000   -0.0010643   -0.0036154    3.1648286   0
    5  647.3163741  236.8137915  615.0177616  -0.0000  -0.0000   1.0000   -0.0010643   -0.0036154    3.1648286   0
    5  648.5551296  238.3412778  614.6859060  -0.0000  -0.0000   1.0000   -0.0010643   -0.0036154    3.1648286   0
    5  649.5948456  240.1993330  614.1627497  -0.0000  -0.0000   1.0000   -0.0010643   -0.0036154    3.1648286   0
    5  649.5997302  242.5638459  613.6529877  -0.0000  -0.0000   1.0000   -0.0010643   -0.0036154    3.1648286   0
    5  648.6384941  244.6648463  612.9633864  -0.0000  -0.0000   1.0000   -0.0010643   -0.0036154    3.1648286   0
    5  647.4420127  246.5046193  612.1317128  -0.0000  -0.0000   1.0000   -0.0010643   -0.0036154    3.1648286   0
    5  646.6371415  248.4031957  611.1823460  -0.0000  -0.0000   1.0000   -0.0010643   -0.0036154    3.1648286   0
    5  645.6562655  249.9441945  610.0289761  -0.0000  -0.0000   1.0000   -0.0010643   -0.0036154    3.1648286   0
    5  644.2855743  251.7328312  609.6584064  -0.0000  -0.0000   1.0000   -0.0010643   -0.0036154    3.1648286   0
    5  643.2796220  254.3262553  610.2619580  -0.0000  -0.0000   1.0000   -0.0010643   -0.0036154    3.1648286   0
    5  643.2963536  256.9067864  610.6431102  -0.0000  -0.0000   1.0000   -0.0010643   -0.0036154    3.1648286   0
    5  644.0253323  258.9112420  610.0819300  -0.0000  -0.0000   1.0000   -0.0010643   -0.0036154    3.1648286   0
    5  645.2017076  260.5725725  608.9186797  -0.0000  -0.0000   1.0000   -0.0010643   -0.0036154    3.1648286   0
    5  646.8491116  262.3376319  608.0498217  -0.0000  -0.0000   1.0000   -0.0010643   -0.0036154    3.1648286   0
    5  648.3731537  264.1111090  607.6270970  -0.0000  -0.0000   1.0000   -0.0010643   -0.0036154    3.1648286   0
    5  649.4421387  265.7950574  606.8938469  -0.0000  -0.0000   1.0000   -0.0010643   -0.0036154    3.1648286   0
    5  650.3336501  267.5187385  605.8063033  -0.0000  -0.0000   1.0000   -0.0010643   -0.0036154    3.1648286   0
    5  651.6709802  269.1998454  605.4084569  -0.0000  -0.0000   1.0000   -0.0010643   -0.0036154    3.1648286   0
    5  653.0763028  270.8393273  605.8443000  -0.0000  -0.0000   1.0000   -0.0010643   -0.0036154    3.1648286   0
    5  653.8325978  272.7577914  606.4138232  -0.0000  -0.0000   1.0000   -0.0010643   -0.0036154    3.1648286   0
    5  654.0439465  275.0729897  606.8832928  -0.0000  -0.0000   1.0000   -0.0010643   -0.0036154    3.1648286   0
    5  653.3640506  277.2378646  606.9005416  -0.0000  -0.0000   1.0000   -0.0010643   -0.0036154    3.1648286   0
    5  651.9205592  279.0181490  606.1105712  -0.0000  -0.0000   1.0000   -0.0010643   -0.0036154    3.1648286   0
    5  650.5543600  280.8030531  605.1114054  -0.0000  -0.0000   1.0000   -0.0010643   -0.0036154    3.1648286   0
    5  649.6696348  282.7491056  604.9690424  -0.0000  -0.0000   1.0000   -0.0010643   -0.0036154    3.1648286   0
    5  649.1618747  284.6745032  605.1566053  -0.0000  -0.0000   1.0000   -0.0010643   -0.0036154    3.1648286   0
    5  648.7906572  286.5475905  604.3492765  -0.0000  -0.0000   1.0000   -0.0010643   -0.0036154    3.1648286   0