ITEM: TIMESTEP
0
ITEM: NUMBER OF ATOMS
11653
ITEM: BOX BOUNDS pp pp pp 
0.0 696.382889
0.0 696.521856
0.0 697.447951
ITEM: ATOMS id x y z tbx tby tbz sbx sby sbz loop
    0  139.5772272  152.6363636  195.2609090   0.5000   0.5000   0.5000    1.5824437    1.5800168    1.5821943   0
    0  140.9808052  150.7557941  194.9782676   0.5000   0.5000   0.5000    1.5824437    1.5800168    1.5821943   0
    0  141.3339770  149.7867890  196.0133043   0.5000   0.5000   0.5000    1.5824437    1.5800168    1.5821943   0
    0  140.9620880  149.3003058  198.5089630   0.5000   0.5000   0.5000    1.5824437    1.5800168    1.5821943   0
    0  140.9071803  149.8928392  201.0201580   0.5000   0.5000   0.5000    1.5824437    1.5800168    1.5821943   0
    0  140.6174637  151.7022691  201.7372234   0.5000   0.5000   0.5000    1.5824437    1.5800168    1.5821943   0
    0  139.7527878  153.3328177  201.2392140   0.5000   0.5000   0.5000    1.5824437    1.5800168    1.5821943   0
    0  139.4040864  153.7785897  199.4499590   0.5000   0.5000   0.5000    1.5824437    1.5800168    1.5821943   0
    0  139.5772272  152.6363636  195.2609090   0.5000   0.5000   0.5000    1.5824437    1.5800168    1.5821943   0
    1  491.5300016  547.1651090   33.5812596  -0.5000   0.5000   0.5000   -1.5819241    1.5809236    1.5824534   0
    1  488.4777591  545.0149459   31.1530764  -0.5000   0.5000   0.5000   -1.5819241    1.5809236    1.5824534   0
    1  486.3398944  543.3380621   29.6546892  -0.5000   0.5000   0.5000   -1.5819241    1.5809236    1.5824534   0
    1  485.0279718  542.4572616   28.1521045  -0.5000   0.5000   0.5000   -1.5819241    1.5809236    1.5824534   0
    1  484.0440423  541.8868121   26.9547480  -0.5000   0.5000   0.5000   -1.5819241    1.5809236    1.5824534   0
    1  484.0705274  540.4900172   27.0133149  -0.5000   0.5000   0.5000   -1.5819241    1.5809236    1.5824534   0
    1  485.2068641  538.8828706   27.9565649  -0.5000   0.5000   0.5000   -1.5819241    1.5809236    1.5824534   0
    1  486.1515773  537.9633005   28.7379515  -0.5000   0.5000   0.5000   -1.5819241    1.5809236    1.5824534   0
    1  486.8403746  536.6059695   29.0354196  -0.5000   0.5000   0.5000   -1.5819241    1.5809236    1.5824534   0
    1  487.3695474  533.9716347   29.4037440  -0.5000   0.5000   0.5000   -1.5819241    1.5809236    1.5824534   0
    1  487.5923359  531.4694801   30.1102052  -0.5000   0.5000   0.5000   -1.5819241    1.5809236    1.5824534   0
    1  488.1369155  529.8933861   30.9862561  -0.5000   0.5000   0.5000   -1.5819241    1.5809236    1.5824534   0
    1  488.5385026  528.1668867   31.6530694  -0.5000   0.5000   0.5000   -1.5819241    1.5809236    1.5824534   0
    1  488.6544986  526.1765759   32.2518937  -0.5000   0.5000   0.5000   -1.5819241    1.5809236    1.5824534   0
    1  488.8947329  524.4065011   33.0065479  -0.5000   0.5000   0.5000   -1.5819241    1.5809236    1.5824534   0
    1  489.4604160  522.7193841   33.4690470  -0.5000   0.5000   0.5000   -1.5819241    1.5809236    1.5824534   0
    1  490.6065985  520.9088399   33.9828617  -0.5000   0.5000   0.5000   -1.5819241    1.5809236    1.5824534   0
    1  491.2077439  518.8909477   34.9903567  -0.5000   0.5000   0.5000   -1.5819241    1.5809236    1.5824534   0
    1  490.8822316  516.6015643   35.9220461  -0.5000   0.5000   0.5000   -1.5819241    1.5809236    1.5824534   0
    1  490.6822020  513.8529180   36.6101049  -0.5000   0.5000   0.5000   -1.5819241    1.5809236    1.5824534   0
    1  490.9593786  511.0253234   37.0653100  -0.5000   0.5000   0.5000   -1.5819241    1.5809236    1.5824534   0
    1  491.4757840  508.7276810   37.1337779  -0.5000   0.5000   0.5000   -1.5819241    1.5809236    1.5824534   0
    1  492.2108844  507.0676261   37.7929684  -0.5000   0.5000   0.5000   -1.5819241    1.5809236    1.5824534   0
    1  492.9484691  505.2935704   39.1189316  -0.5000   0.5000   0.5000   -1.5819241    1.5809236    1.5824534   0
    1  493.2425324  502.8730085   39.6504502  -0.5000   0.5000   0.5000   -1.5819241    1.5809236    1.5824534   0
    1  493.5578094  500.6063569   39.7550607  -0.5000   0.5000   0.5000   -1.5819241    1.5809236    1.5824534   0
    1  493.4864312  498.7390051   39.7099593  -0.5000   0.5000   0.5000   -1.5819241    1.5809236    1.5824534   0
    1  492.5988109  496.7539697   38.6699137  -0.5000   0.5000   0.5000   -1.5819241    1.5809236    1.5824534   0
    1  491.8849298  494.2043763   37.8730979  -0.5000   0.5000   0.5000   -1.5819241    1.5809236    1.5824534   0
    1  491.6145538  491.4218142   38.3684728  -0.5000   0.5000   0.5000   -1.5819241    1.5809236    1.5824534   0
    1  492.2232959  489.3931880   38.7189602  -0.5000   0.5000   0.5000   -1.5819241    1.5809236    1.5824534   0
    1  493.8812728  488.3204459   38.7735582  -0.5000   0.5000   0.5000   -1.5819241    1.5809236    1.5824534   0
    1  495.2724346  486.9965674   39.6000249  -0.5000   0.5000   0.5000   -1.5819241    1.5809236    1.5824534   0
    1  495.6010275  483.9537043   40.2250045  -0.5000   0.5000   0.5000   -1.5819241    1.5809236    1.5824534   0
    1  495.3305838  480.0864500   40.2083590  -0.5000   0.5000   0.5000   -1.5819241    1.5809236    1.5824534   0
    1  495.2734260  477.2577944   40.4948874  -0.5000   0.5000   0.5000   -1.5819241    1.5809236    1.5824534   0
    1  495.9863713  475.5335666   40.9092159  -0.5000   0.5000   0.5000   -1.5819241    1.5809236    1.5824534   0
    1  497.5045113  474.4961235   41.2232660  -0.5000   0.5000   0.5000   -1.5819241    1.5809236    1.5824534   0
    1  499.5929285  473.7054540   41.5767702  -0.5000   0.5000   0.5000   -1.5819241    1.5809236    1.5824534   0
    1  501.7873182  472.2503785   41.0403553  -0.5000   0.5000   0.5000   -1.5819241    1.5809236    1.5824534   0
    1  503.6661296  471.2985023   39.9698013  -0.5000   0.5000   0.5000   -1.5819241    1.5809236    1.5824534   0
    1  505.4655446  472.2297402   39.7338620  -0.5000   0.5000   0.5000   -1.5819241    1.5809236    1.5824534   0
    1  507.3808559  473.0811436   39.5731667  -0.5000   0.5000   0.5000   -1.5819241    1.5809236    1.5824534   0
    1  509.2621324  472.8209805   38.9769463  -0.5000   0.5000   0.5000   -1.5819241    1.5809236    1.5824534   0
    1  511.2838842  472.9299757   38.9372012  -0.5000   0.5000   0.5000   -1.5819241    1.5809236    1.5824534   0
    1  513.3540803  473.1509753   39.8236909  -0.5000   0.5000   0.5000   -1.5819241    1.5809236    1.5824534   0
    1  515.2972970  472.2974514   40.7920125  -0.5000   0.5000   0.5000   -1.5819241    1.5809236    1.5824534   0
    1  517.3654668  471.2867945   41.4165166  -0.5000   0.5000   0.5000   -1.5819241    1.5809236    1.5824534   0
    1  519.3819435  470.9430142   42.3380562  -0.5000   0.5000   0.5000   -1.5819241    1.5809236    1.5824534   0
    1  520.6929809  470.0473722   43.5491663  -0.5000   0.5000   0.5000   -1.5819241    1.5809236    1.5824534   0
    1  521.1928289  468.4789739   44.8920098  -0.5000   0.5000   0.5000   -1.5819241    1.5809236    1.5824534   0
    1  521.4102759  466.9218137   46.2627270  -0.5000   0.5000   0.5000   -1.5819241    1.5809236    1.5824534   0
    1  521.9336585  465.4779695   46.7659757  -0.5000   0.5000   0.5000   -1.5819241    1.5809236    1.5824534   0
    1  523.6068911  464.5919006   46.5655190  -0.5000   0.5000   0.5000   -1.5819241    1.5809236    1.5824534   0
    1  526.3284434  464.0490422   47.1820715  -0.5000   0.5000   0.5000   -1.5819241    1.5809236    1.5824534   0
    1  528.8543367  463.7429166   48.2008039  -0.5000   0.5000   0.5000   -1.5819241    1.5809236    1.5824534   0
    1  530.9118058  463.6279228   48.1636191  -0.5000   0.5000   0.5000   -1.5819241    1.5809236    1.5824534   0
    1  532.7166785  463.5097557   47.9664025  -0.5000   0.5000   0.5000   -1.5819241    1.5809236    1.5824534   0
    1  534.2792613  463.7151194   48.6038392  -0.5000   0.5000   0.5000   -1.5819241    1.5809236    1.5824534   0
    1  535.4961120  463.4732459   49.6790321  -0.5000   0.5000   0.5000   -1.5819241    1.5809236    1.5824534   0
    1  536.8829340  462.4063559   50.4113055  -0.5000   0.5000   0.5000   -1.5819241    1.5809236    1.5824534   0
    1  539.2722488  461.6870063   50.9189560  -0.5000   0.5000   0.5000   -1.5819241    1.5809236    1.5824534   0
    1  541.2165758  461.9342141   52.2691337  -0.5000   0.5000   0.5000   -1.5819241    1.5809236    1.5824534   0
    1  542.1812811  462.5425298   53.7501354  -0.5000   0.5000   0.5000   -1.5819241    1.5809236    1.5824534   0
    1  543.8616887  462.6897803   54.1824102  -0.5000   0.5000   0.5000   -1.5819241    1.5809236    1.5824534   0
    1  546.2983045  462.5342001   54.2668516  -0.5000   0.5000   0.5000   -1.5819241    1.5809236    1.5824534   0
    1  548.4880654  462.2514730   55.2323610  -0.5000   0.5000   0.5000   -1.5819241    1.5809236    1.5824534   0
    1  550.0410201  461.5076636   56.6860668  -0.5000   0.5000   0.5000   -1.5819241    1.5809236    1.5824534   0
    1  551.3395518  460.4099793   57.6305646  -0.5000   0.5000   0.5000   -1.5819241    1.5809236    1.5824534   0
    1  553.1443134  459.7582901   58.3279329  -0.5000   0.5000   0.5000   -1.5819241    1.5809236    1.5824534   0
    1  555.9909758  459.9543775   58.8128521  -0.5000   0.5000   0.5000   -1.5819241    1.5809236    1.5824534   0
    1  558.9128635  460.6534696   59.2982872  -0.5000   0.5000   0.5000   -1.5819241    1.5809236    1.5824534   0
    1  560.6822541  461.1120211   60.0479995  -0.5000   0.5000   0.5000   -1.5819241    1.5809236    1.5824534   0
    1  562.1312674  460.6505443   60.3638636  -0.5000   0.5000   0.5000   -1.5819241    1.5809236    1.5824534   0
    1  564.1994894  459.6035223   60.2861276  -0.5000   0.5000   0.5000   -1.5819241    1.5809236    1.5824534   0
    1  566.7358830  458.9585874   60.2405493  -0.5000   0.5000   0.5000   -1.5819241    1.5809236    1.5824534   0
    1  568.9142733  458.6201975   59.6475755  -0.5000   0.5000   0.5000   -1.5819241    1.5809236    1.5824534   0
    1  569.9964759  457.7334662   59.1724842  -0.5000   0.5000   0.5000   -1.5819241    1.5809236    1.5824534   0
    1  570.7645752  457.3865822   59.7469695  -0.5000   0.5000   0.5000   -1.5819241    1.5809236    1.5824534   0
    1  572.0681722  457.9069029   60.1669759  -0.5000   0.5000   0.5000   -1.5819241    1.5809236    1.5824534   0
    1  573.9798020  458.2348124   60.2959367  -0.5000   0.5000   0.5000   -1.5819241    1.5809236    1.5824534   0
    1  576.6247498  458.7113617   60.7270648  -0.5000   0.5000   0.5000   -1.5819241    1.5809236    1.5824534   0
    1  579.1050813  459.2949097   60.6318735  -0.5000   0.5000   0.5000   -1.5819241    1.5809236    1.5824534   0
    1  580.6442093  460.1369867   59.5958622  -0.5000   0.5000   0.5000   -1.5819241    1.5809236    1.5824534   0
    1  581.8309525  461.6956635   58.7346829  -0.5000   0.5000   0.5000   -1.5819241    1.5809236    1.5824534   0
    1  583.3866445  463.2226679   58.7427203  -0.5000   0.5000   0.5000   -1.5819241    1.5809236    1.5824534   0
    1  585.3738190  464.0160915   59.3518085  -0.5000   0.5000   0.5000   -1.5819241    1.5809236    1.5824534   0
    1  587.3350830  464.7822692   60.3578861  -0.5000   0.5000   0.5000   -1.5819241    1.5809236    1.5824534   0
    1  588.6732167  466.0983679   61.6082670  -0.5000   0.5000   0.5000   -1.5819241    1.5809236    1.5824534   0
    1  589.2008757  467.5493526   63.0238824  -0.5000   0.5000   0.5000   -1.5819241    1.5809236    1.5824534   0
    1  589.8424150  468.4991823   64.6089078  -0.5000   0.5000   0.5000   -1.5819241    1.5809236    1.5824534   0
    1  590.9809366  468.0814900   66.2602248  -0.5000   0.5000   0.5000   -1.5819241    1.5809236    1.5824534   0
    1  592.3391577  466.6955878   67.3602707  -0.5000   0.5000   0.5000   -1.5819241    1.5809236    1.5824534   0
    1  594.4404013  465.7087162   67.3680964  -0.5000   0.5000   0.5000   -1.5819241    1.5809236    1.5824534   0
    1  596.8061471  464.9218879   66.9690392  -0.5000   0.5000   0.5000   -1.5819241    1.5809236    1.5824534   0
    1  598.3458889  463.1988889   67.2408389  -0.5000   0.5000   0.5000   -1.5819241    1.5809236    1.5824534   0
    2  381.1692224  353.0032777  630.8362778  -0.5000   0.5000   0.5000   -1.5819241    1.5809236    1.5824534   0
    2  380.0544290  355.1454876  631.0813833  -0.5000   0.5000   0.5000   -1.5819241    1.5809236    1.5824534   0
    2  378.1475902  357.4230170  630.9976740  -0.5000   0.5000   0.5000   -1.5819241    1.5809236    1.5824534   0
    2  376.6333047  360.0458434  631.4693240  -0.5000   0.5000   0.5000   -1.5819241    1.5809236    1.5824534   0
    2  376.0926245  362.6432605  632.0491002  -0.5000   0.5000   0.5000   -1.5819241    1.5809236    1.5824534   0
    2  375.7301949  364.8234598  632.1838659  -0.5000   0.5000   0.5000   -1.5819241    1.5809236    1.5824534   0
    2  374.6973176  366.8085613  632.2243194  -0.5000   0.5000   0.5000   -1.5819241    1.5809236    1.5824534   0
    2  373.5300668  368.9269457  632.0628034  -0.5000   0.5000   0.5000   -1.5819241    1.5809236    1.5824534   0
    2  372.9564057  371.5815162  632.0881076  -0.5000   0.5000   0.5000   -1.5819241    1.5809236    1.5824534   0
    2  372.8110593  374.2181905  633.0551214  -0.5000   0.5000   0.5000   -1.5819241    1.5809236    1.5824534   0
    2  372.8274026  376.2717460  634.5324940  -0.5000   0.5000   0.5000   -1.5819241    1.5809236    1.5824534   0
    2  372.7725539  378.2684751  635.4080045  -0.5000   0.5000   0.5000   -1.5819241    1.5809236    1.5824534   0
    2  373.3755042  380.1223738  635.5418308  -0.5000   0.5000   0.5000   -1.5819241    1.5809236    1.5824534   0
    2  374.6898361  381.6497622  635.6169491  -0.5000   0.5000   0.5000   -1.5819241    1.5809236    1.5824534   0
    2  375.1752299  383.1332264  636.2726835  -0.5000   0.5000   0.5000   -1.5819241    1.5809236    1.5824534   0
    2  374.3840360  384.5534670  637.2141687  -0.5000   0.5000   0.5000   -1.5819241    1.5809236    1.5824534   0
    2  373.1575051  385.7574659  637.1360963  -0.5000   0.5000   0.5000   -1.5819241    1.5809236    1.5824534   0
    2  372.4478404  387.2236568  636.2600939  -0.5000   0.5000   0.5000   -1.5819241    1.5809236    1.5824534   0
    2  372.3288828  389.7647248  636.0111870  -0.5000   0.5000   0.5000   -1.5819241    1.5809236    1.5824534   0
    2  371.9865780  392.6569682  636.3542706  -0.5000   0.5000   0.5000   -1.5819241    1.5809236    1.5824534   0
    2  371.2068594  395.0361986  636.8172062  -0.5000   0.5000   0.5000   -1.5819241    1.5809236    1.5824534   0
    2  370.5762032  397.4688928  636.9583840  -0.5000   0.5000   0.5000   -1.5819241    1.5809236    1.5824534   0
    2  370.7864199  400.0474618  636.7695531  -0.5000   0.5000   0.5000   -1.5819241    1.5809236    1.5824534   0
    2  371.7249734  402.5579776  637.0861384  -0.5000   0.5000   0.5000   -1.5819241    1.5809236    1.5824534   0
    2  372.1684802  404.9280107  638.1229246  -0.5000   0.5000   0.5000   -1.5819241    1.5809236    1.5824534   0
    2  372.2507139  406.7031157  639.5702097  -0.5000   0.5000   0.5000   -1.5819241    1.5809236    1.5824534   0
    2  372.2131750  407.9439674  640.8227446  -0.5000   0.5000   0.5000   -1.5819241    1.5809236    1.5824534   0
    2  370.9323209  408.7644357  641.1749394  -0.5000   0.5000   0.5000   -1.5819241    1.5809236    1.5824534   0
    2  368.9884200  409.4206895  640.1922963  -0.5000   0.5000   0.5000   -1.5819241    1.5809236    1.5824534   0
    2  367.5117390  410.4546211  638.2627829  -0.5000   0.5000   0.5000   -1.5819241    1.5809236    1.5824534   0
    2  366.2832038  411.3561023  636.8988056  -0.5000   0.5000   0.5000   -1.5819241    1.5809236    1.5824534   0
    2  364.5087692  411.6564088  636.8209174  -0.5000   0.5000   0.5000   -1.5819241    1.5809236    1.5824534   0
    2  362.3108497  411.2400674  637.2388283  -0.5000   0.5000   0.5000   -1.5819241    1.5809236    1.5824534   0
    2  360.6297894  410.0821421  637.3266082  -0.5000   0.5000   0.5000   -1.5819241    1.5809236    1.5824534   0
    2  359.4080319  409.7464899  637.3026044  -0.5000   0.5000   0.5000   -1.5819241    1.5809236    1.5824534   0
    2  357.8085133  411.1151586  637.9011285  -0.5000   0.5000   0.5000   -1.5819241    1.5809236    1.5824534   0
    2  356.0681429  412.7037261  639.4187218  -0.5000   0.5000   0.5000   -1.5819241    1.5809236    1.5824534   0
    2  354.9753294  413.4947915  640.6902701  -0.5000   0.5000   0.5000   -1.5819241    1.5809236    1.5824534   0
    2  353.8684851  414.0133000  640.0721695  -0.5000   0.5000   0.5000   -1.5819241    1.5809236    1.5824534   0
    2  352.4193922  414.9367334  638.7499377  -0.5000   0.5000   0.5000   -1.5819241    1.5809236    1.5824534   0
    2  350.9582975  416.3297177  638.3198283  -0.5000   0.5000   0.5000   -1.5819241    1.5809236    1.5824534   0
    2  349.1513557  417.8439364  638.8396498  -0.5000   0.5000   0.5000   -1.5819241    1.5809236    1.5824534   0
    2  347.0747607  419.0157768  639.7607770  -0.5000   0.5000   0.5000   -1.5819241    1.5809236    1.5824534   0
    2  344.9501491  419.6762753  640.0616898  -0.5000   0.5000   0.5000   -1.5819241    1.5809236    1.5824534   0
    2  343.0285542  419.5805699  639.9075197  -0.5000   0.5000   0.5000   -1.5819241    1.5809236    1.5824534   0
    2  341.4842238  419.5565567  639.8870913  -0.5000   0.5000   0.5000   -1.5819241    1.5809236    1.5824534   0
    2  339.8205675  420.7108216  640.0662017  -0.5000   0.5000   0.5000   -1.5819241    1.5809236    1.5824534   0
    2  338.0776704  422.2132690  640.5873269  -0.5000   0.5000   0.5000   -1.5819241    1.5809236    1.5824534   0
    2  336.5918448  423.6330645  641.0683215  -0.5000   0.5000   0.5000   -1.5819241    1.5809236    1.5824534   0
    2  335.1231131  425.0204898  641.5082238  -0.5000   0.5000   0.5000   -1.5819241    1.5809236    1.5824534   0
    2  333.8238398  425.1937644  642.1910010  -0.5000   0.5000   0.5000   -1.5819241    1.5809236    1.5824534   0
    2  332.5420976  424.0194222  642.7850139  -0.5000   0.5000   0.5000   -1.5819241    1.5809236    1.5824534   0
    2  330.3989251  423.1918596  643.3779834  -0.5000   0.5000   0.5000   -1.5819241    1.5809236    1.5824534   0
    2  327.6011127  423.3554511  644.1285007  -0.5000   0.5000   0.5000   -1.5819241    1.5809236    1.5824534   0
    2  325.4237040  423.5724078  645.4969167  -0.5000   0.5000   0.5000   -1.5819241    1.5809236    1.5824534   0
    2  324.6381674  423.4575880  647.8634855  -0.5000   0.5000   0.5000   -1.5819241    1.5809236    1.5824534   0
    2  323.8527475  423.7342008  650.0699563  -0.5000   0.5000   0.5000   -1.5819241    1.5809236    1.5824534   0
    2  321.1914938  424.1949866  650.8543226  -0.5000   0.5000   0.5000   -1.5819241    1.5809236    1.5824534   0
    2  317.4663834  424.0345475  650.6613348  -0.5000   0.5000   0.5000   -1.5819241    1.5809236    1.5824534   0
    2  314.7906471  424.2361391  650.3210000  -0.5000   0.5000   0.5000   -1.5819241    1.5809236    1.5824534   0
    2  313.3964891  425.5922489  650.3420996  -0.5000   0.5000   0.5000   -1.5819241    1.5809236    1.5824534   0
    2  311.8359568  427.0002740  650.9923021  -0.5000   0.5000   0.5000   -1.5819241    1.5809236    1.5824534   0
    2  309.5564549  427.5967082  651.3755492  -0.5000   0.5000   0.5000   -1.5819241    1.5809236    1.5824534   0
    2  307.0979513  427.9033223  651.1502642  -0.5000   0.5000   0.5000   -1.5819241    1.5809236    1.5824534   0
    2  305.7617053  429.1137064  650.5008382  -0.5000   0.5000   0.5000   -1.5819241    1.5809236    1.5824534   0
    2  306.2142856  431.5270713  648.8270714  -0.5000   0.5000   0.5000   -1.5819241    1.5809236    1.5824534   0
    3  602.9673144  379.7743598   21.9340108  -0.5000  -0.5000  -0.5000   -1.5824437   -1.5800168   -1.5821943   0
    3  602.4278487  380.9175908   25.1071498  -0.5000  -0.5000  -0.5000   -1.5824437   -1.5800168   -1.5821943   0
    3  601.6258293  381.7045495   27.3571327  -0.5000  -0.5000  -0.5000   -1.5824437   -1.5800168   -1.5821943   0
    3  600.4163011  382.7267989   28.6977199  -0.5000  -0.5000  -0.5000   -1.5824437   -1.5800168   -1.5821943   0
    3  599.0708867  383.7652174   29.8825093  -0.5000  -0.5000  -0.5000   -1.5824437   -1.5800168   -1.5821943   0
    3  598.2399883  384.3143906   31.5820137  -0.5000  -0.5000  -0.5000   -1.5824437   -1.5800168   -1.5821943   0
    3  598.1514399  384.3394235   34.3620758  -0.5000  -0.5000  -0.5000   -1.5824437   -1.5800168   -1.5821943   0
    3  597.9391241  384.1149150   37.3986698  -0.5000  -0.5000  -0.5000   -1.5824437   -1.5800168   -1.5821943   0
    3  597.8148921  383.4291633   39.6207764  -0.5000  -0.5000  -0.5000   -1.5824437   -1.5800168   -1.5821943   0
    3  598.9618245  382.3234019   41.2085245  -0.5000  -0.5000  -0.5000   -1.5824437   -1.5800168   -1.5821943   0
    3  600.3113743  381.3771161   42.6581090  -0.5000  -0.5000  -0.5000   -1.5824437   -1.5800168   -1.5821943   0
    3  599.9566406  380.7521262   43.7495295  -0.5000  -0.5000  -0.5000   -1.5824437   -1.5800168   -1.5821943   0
    3  598.5295321  380.9799761   43.6433902  -0.5000  -0.5000  -0.5000   -1.5824437   -1.5800168   -1.5821943   0
    3  597.6344295  382.7576096   42.8991153  -0.5000  -0.5000  -0.5000   -1.5824437   -1.5800168   -1.5821943   0
    3  596.9826919  385.1541549   42.8046950  -0.5000  -0.5000  -0.5000   -1.5824437   -1.5800168   -1.5821943   0
    3  595.9500215  386.5798629   43.8273130  -0.5000  -0.5000  -0.5000   -1.5824437   -1.5800168   -1.5821943   0
    3  594.5241375  387.0698873   45.2865446  -0.5000  -0.5000  -0.5000   -1.5824437   -1.5800168   -1.5821943   0
    3  592.8310965  387.3627580   46.7905434  -0.5000  -0.5000  -0.5000   -1.5824437   -1.5800168   -1.5821943   0
    3  591.9204902  387.6378519   49.1685907  -0.5000  -0.5000  -0.5000   -1.5824437   -1.5800168   -1.5821943   0
    3  591.8482893  388.1548020   51.9311089  -0.5000  -0.5000  -0.5000   -1.5824437   -1.5800168   -1.5821943   0
    3  591.5023874  389.4956605   53.8535085  -0.5000  -0.5000  -0.5000   -1.5824437   -1.5800168   -1.5821943   0
    3  590.5356984  391.4985527   54.7805140  -0.5000  -0.5000  -0.5000   -1.5824437   -1.5800168   -1.5821943   0
    3  589.2291662  393.2835502   55.2192958  -0.5000  -0.5000  -0.5000   -1.5824437   -1.5800168   -1.5821943   0
    3  587.9603941  394.5623954   55.5148186  -0.5000  -0.5000  -0.5000   -1.5824437   -1.5800168   -1.5821943   0
    3  586.7263694  395.7992206   55.4423597  -0.5000  -0.5000  -0.5000   -1.5824437   -1.5800168   -1.5821943   0
    3  585.6690463  397.5576419   55.4107816  -0.5000  -0.5000  -0.5000   -1.5824437   -1.5800168   -1.5821943   0
    3  585.5036672  399.9053422   55.9755808  -0.5000  -0.5000  -0.5000   -1.5824437   -1.5800168   -1.5821943   0
    3  585.6515346  402.2057121   56.7021273  -0.5000  -0.5000  -0.5000   -1.5824437   -1.5800168   -1.5821943   0
    3  585.2662490  404.4569524   57.1571761  -0.5000  -0.5000  -0.5000   -1.5824437   -1.5800168   -1.5821943   0
    3  584.8088604  406.8832061   57.5079704  -0.5000  -0.5000  -0.5000   -1.5824437   -1.5800168   -1.5821943   0
    3  583.6761744  408.6007210   58.1620268  -0.5000  -0.5000  -0.5000   -1.5824437   -1.5800168   -1.5821943   0
    3  581.7312716  409.9673750   58.9454666  -0.5000  -0.5000  -0.5000   -1.5824437   -1.5800168   -1.5821943   0
    3  580.1757910  411.6927270   59.8202111  -0.5000  -0.5000  -0.5000   -1.5824437   -1.5800168   -1.5821943   0
    3  579.6354118  413.4615393   60.8995132  -0.5000  -0.5000  -0.5000   -1.5824437   -1.5800168   -1.5821943   0
    3  579.7531143  415.5414576   61.7984914  -0.5000  -0.5000  -0.5000   -1.5824437   -1.5800168   -1.5821943   0
    3  579.7496725  417.4932395   61.7835437  -0.5000  -0.5000  -0.5000   -1.5824437   -1.5800168   -1.5821943   0
    3  580.1752389  419.0448615   60.7251736  -0.5000  -0.5000  -0.5000   -1.5824437   -1.5800168   -1.5821943   0
    3  581.1053319  420.9845164   59.6073627  -0.5000  -0.5000  -0.5000   -1.5824437   -1.5800168   -1.5821943   0
    3  581.6069983  423.1968869   58.8262617  -0.5000  -0.5000  -0.5000   -1.5824437   -1.5800168   -1.5821943   0
    3  581.6038705  425.5789540   58.9518921  -0.5000  -0.5000  -0.5000   -1.5824437   -1.5800168   -1.5821943   0
    3  581.2646901  428.3590395   59.4803332  -0.5000  -0.5000  -0.5000   -1.5824437   -1.5800168   -1.5821943   0
    3  580.5814589  430.7884751   59.2731213  -0.5000  -0.5000  -0.5000   -1.5824437   -1.5800168   -1.5821943   0
    3  579.7585709  432.5095390   59.5149684  -0.5000  -0.5000  -0.5000   -1.5824437   -1.5800168   -1.5821943   0
    3  579.1281452  434.3420513   60.3465508  -0.5000  -0.5000  -0.5000   -1.5824437   -1.5800168   -1.5821943   0
    3  578.6417970  436.9533890   60.5315184  -0.5000  -0.5000  -0.5000   -1.5824437   -1.5800168   -1.5821943   0
    3  579.0991335  439.6866648   60.2674429  -0.5000  -0.5000  -0.5000   -1.5824437   -1.5800168   -1.5821943   0
    3  581.0292452  441.2903910   59.6469997  -0.5000  -0.5000  -0.5000   -1.5824437   -1.5800168   -1.5821943   0
    3  582.7470924  442.5893249   58.7376152  -0.5000  -0.5000  -0.5000   -1.5824437   -1.5800168   -1.5821943   0
    3  583.6164532  444.6531688   58.3594825  -0.5000  -0.5000  -0.5000   -1.5824437   -1.5800168   -1.5821943   0
    3  584.6342146  446.7114012   58.4731105  -0.5000  -0.5000  -0.5000   -1.5824437   -1.5800168   -1.5821943   0
    3  585.9802211  448.3841531   58.4881740  -0.5000  -0.5000  -0.5000   -1.5824437   -1.5800168   -1.5821943   0
    3  587.6237297  450.1535583   58.5263326  -0.5000  -0.5000  -0.5000   -1.5824437   -1.5800168   -1.5821943   0
    3  589.4799678  451.9878276   58.9828516  -0.5000  -0.5000  -0.5000   -1.5824437   -1.5800168   -1.5821943   0
    3  591.0946905  453.8160598   59.7559837  -0.5000  -0.5000  -0.5000   -1.5824437   -1.5800168   -1.5821943   0
    3  592.1861474  455.8547551   60.6662935  -0.5000  -0.5000  -0.5000   -1.5824437   -1.5800168   -1.5821943   0
    3  593.1883517  457.1516593   61.6175647  -0.5000  -0.5000  -0.5000   -1.5824437   -1.5800168   -1.5821943   0
    3  594.6980526  458.0240066   63.0017456  -0.5000  -0.5000  -0.5000   -1.5824437   -1.5800168   -1.5821943   0
    3  596.3170836  459.7035471   64.8208497  -0.5000  -0.5000  -0.5000   -1.5824437   -1.5800168   -1.5821943   0
    3  597.4887088  461.5235575   66.2171232  -0.5000  -0.5000  -0.5000   -1.5824437   -1.5800168   -1.5821943   0
    3  598.3458889  463.1988889   67.2408389  -0.5000  -0.5000  -0.5000   -1.5824437   -1.5800168   -1.5821943   0
    4  599.7975001  234.4501429  173.6344286   0.5000   0.5000   0.5000    1.5824437    1.5800168    1.5821943   0
    4  601.2423103  234.9410443  171.1541122   0.5000   0.5000   0.5000    1.5824437    1.5800168    1.5821943   0
    4  602.4877341  235.1304733  169.7051974   0.5000   0.5000   0.5000    1.5824437    1.5800168    1.5821943   0
    4  603.9894978  234.3457336  169.3449359   0.5000   0.5000   0.5000    1.5824437    1.5800168    1.5821943   0
    4  605.8787223  233.7256831  168.5953459   0.5000   0.5000   0.5000    1.5824437    1.5800168    1.5821943   0
    4  607.6067650  233.9489850  167.5640288   0.5000   0.5000   0.5000    1.5824437    1.5800168    1.5821943   0
    4  609.3487917  233.6866876  167.2824306   0.5000   0.5000   0.5000    1.5824437    1.5800168    1.5821943   0
    4  611.4644627  232.4911927  167.4612298   0.5000   0.5000   0.5000    1.5824437    1.5800168    1.5821943   0
    4  613.5071500  231.0261077  168.1445820   0.5000   0.5000   0.5000    1.5824437    1.5800168    1.5821943   0
    4  614.5378493  230.0417512  169.9167018   0.5000   0.5000   0.5000    1.5824437    1.5800168    1.5821943   0
    4  614.0718930  230.1774194  171.8545805   0.5000   0.5000   0.5000    1.5824437    1.5800168    1.5821943   0
    4  612.8258351  231.0754476  172.9654247   0.5000   0.5000   0.5000    1.5824437    1.5800168    1.5821943   0
    4  611.7946854  231.5970425  173.8280903   0.5000   0.5000   0.5000    1.5824437    1.5800168    1.5821943   0
    4  610.7285713  231.0717858  174.8581428   0.5000   0.5000   0.5000    1.5824437    1.5800168    1.5821943   0
    5  511.6116071  260.5131816   70.8207912   0.5000  -0.5000  -0.5000    1.5819241   -1.5809236   -1.5824534   0
    5  514.6052789  260.5184183   71.0413554   0.5000  -0.5000  -0.5000    1.5819241   -1.5809236   -1.5824534   0
    5  516.9963471  260.4318735   71.5345240   0.5000  -0.5000  -0.5000    1.5819241   -1.5809236   -1.5824534   0
    5  518.7519332  261.1449912   72.1240892   0.5000  -0.5000  -0.5000    1.5819241   -1.5809236   -1.5824534   0
    5  520.1790917  262.1956555   71.4668614   0.5000  -0.5000  -0.5000    1.5819241   -1.5809236   -1.5824534   0
    5  521.0499012  263.3240559   70.0049467   0.5000  -0.5000  -0.5000    1.5819241   -1.5809236   -1.5824534   0
    5  521.3885709  264.7615163   68.4949647   0.5000  -0.5000  -0.5000    1.5819241   -1.5809236   -1.5824534   0
    5  520.9720627  265.9187380   66.4391365   0.5000  -0.5000  -0.5000    1.5819241   -1.5809236   -1.5824534   0
    5  519.7955888  266.5087785   64.7792060   0.5000  -0.5000  -0.5000    1.5819241   -1.5809236   -1.5824534   0
    5  518.4245598  265.9463999   63.9533539   0.5000  -0.5000  -0.5000    1.5819241   -1.5809236   -1.5824534   0
    5  517.2196174  264.5263882   64.0386075   0.5000  -0.5000  -0.5000    1.5819241   -1.5809236   -1.5824534   0
    5  516.2467191  263.3838072   65.1984562   0.5000  -0.5000  -0.5000    1.5819241   -1.5809236   -1.5824534   0
    5  515.2811604  262.2839201   66.5131396   0.5000  -0.5000  -0.5000    1.5819241   -1.5809236   -1.5824534   0
    5  514.6744286  261.2465018   67.6239094   0.5000  -0.5000  -0.5000    1.5819241   -1.5809236   -1.5824534   0