ITEM: TIMESTEP
0
ITEM: NUMBER OF ATOMS
10681
ITEM: BOX BOUNDS pp pp pp 
0.0 696.285899
0.0 696.556514
0.0 697.660735
ITEM: ATOMS id x y z tbx tby tbz sbx sby sbz loop
    0  385.0584306  351.8074305  613.6717963   1.0000   0.0000   0.0000    3.1645877   -0.0005038   -0.0002600   0
    0  384.3550757  351.4427087  616.6198739   1.0000   0.0000   0.0000    3.1645877   -0.0005038   -0.0002600   0
    0  383.4748598  351.0975639  618.6186498   1.0000   0.0000   0.0000    3.1645877   -0.0005038   -0.0002600   0
    0  382.0390438  351.2639537  620.1807848   1.0000   0.0000   0.0000    3.1645877   -0.0005038   -0.0002600   0
    0  380.5161107  351.5452971  622.0572722   1.0000   0.0000   0.0000    3.1645877   -0.0005038   -0.0002600   0
    0  378.4841664  351.1683782  623.7512002   1.0000   0.0000   0.0000    3.1645877   -0.0005038   -0.0002600   0
    0  376.4431680  350.0078434  625.1898234   1.0000   0.0000   0.0000    3.1645877   -0.0005038   -0.0002600   0
    0  375.1898675  348.5139976  626.5070424   1.0000   0.0000   0.0000    3.1645877   -0.0005038   -0.0002600   0
    0  374.1832806  346.9867185  627.6510200   1.0000   0.0000   0.0000    3.1645877   -0.0005038   -0.0002600   0
    0  373.3500887  345.5095356  628.9833173   1.0000   0.0000   0.0000    3.1645877   -0.0005038   -0.0002600   0
    0  372.4044437  344.9053504  630.3323870   1.0000   0.0000   0.0000    3.1645877   -0.0005038   -0.0002600   0
    0  370.9498801  345.0873281  631.5623832   1.0000   0.0000   0.0000    3.1645877   -0.0005038   -0.0002600   0
    0  369.4395561  344.9574935  632.9870953   1.0000   0.0000   0.0000    3.1645877   -0.0005038   -0.0002600   0
    0  367.8986014  344.4855996  634.4161757   1.0000   0.0000   0.0000    3.1645877   -0.0005038   -0.0002600   0
    0  366.3967482  343.3480277  635.4709729   1.0000   0.0000   0.0000    3.1645877   -0.0005038   -0.0002600   0
    0  365.6063018  341.9280556  636.9402444   1.0000   0.0000   0.0000    3.1645877   -0.0005038   -0.0002600   0
    0  364.9984245  341.3542883  639.1168086   1.0000   0.0000   0.0000    3.1645877   -0.0005038   -0.0002600   0
    0  363.8019724  341.3330299  640.9914967   1.0000   0.0000   0.0000    3.1645877   -0.0005038   -0.0002600   0
    0  362.4717660  341.6146566  642.6870729   1.0000   0.0000   0.0000    3.1645877   -0.0005038   -0.0002600   0
    0  361.4177421  342.1498959  644.3914889   1.0000   0.0000   0.0000    3.1645877   -0.0005038   -0.0002600   0
    0  360.2255573  342.8910917  645.6087480   1.0000   0.0000   0.0000    3.1645877   -0.0005038   -0.0002600   0
    0  358.6012545  343.4144108  646.6875687   1.0000   0.0000   0.0000    3.1645877   -0.0005038   -0.0002600   0
    0  357.2378301  343.4407597  648.1605973   1.0000   0.0000   0.0000    3.1645877   -0.0005038   -0.0002600   0
    0  355.9432117  343.4017362  649.7466594   1.0000   0.0000   0.0000    3.1645877   -0.0005038   -0.0002600   0
    0  354.5107617  343.4012354  651.1957091   1.0000   0.0000   0.0000    3.1645877   -0.0005038   -0.0002600   0
    0  353.3356327  343.3601910  652.5392004   1.0000   0.0000   0.0000    3.1645877   -0.0005038   -0.0002600   0
    0  351.9384338  343.5590477  653.7567289   1.0000   0.0000   0.0000    3.1645877   -0.0005038   -0.0002600   0
    0  350.5141316  343.8679620  655.0689883   1.0000   0.0000   0.0000    3.1645877   -0.0005038   -0.0002600   0
    0  349.0884006  343.9500161  656.3522807   1.0000   0.0000   0.0000    3.1645877   -0.0005038   -0.0002600   0
    0  347.7220044  343.8522939  657.7137193   1.0000   0.0000   0.0000    3.1645877   -0.0005038   -0.0002600   0
    0  346.4091404  343.5558568  659.1491622   1.0000   0.0000   0.0000    3.1645877   -0.0005038   -0.0002600   0
    0  345.0180059  343.4710000  660.4770994   1.0000   0.0000   0.0000    3.1645877   -0.0005038   -0.0002600   0
    0  343.8534634  343.3005219  661.9579035   1.0000   0.0000   0.0000    3.1645877   -0.0005038   -0.0002600   0
    0  342.4661915  343.0420117  663.5517485   1.0000   0.0000   0.0000    3.1645877   -0.0005038   -0.0002600   0
    0  340.8905014  343.2968480  665.1549371   1.0000   0.0000   0.0000    3.1645877   -0.0005038   -0.0002600   0
    0  339.0865775  343.3060541  666.3683874   1.0000   0.0000   0.0000    3.1645877   -0.0005038   -0.0002600   0
    0  337.2775614  342.9329459  667.5193977   1.0000   0.0000   0.0000    3.1645877   -0.0005038   -0.0002600   0
    0  336.3381622  342.4368728  669.3252836   1.0000   0.0000   0.0000    3.1645877   -0.0005038   -0.0002600   0
    0  335.8085891  341.3283612  671.2136827   1.0000   0.0000   0.0000    3.1645877   -0.0005038   -0.0002600   0
    0  334.8959503  339.9770688  672.5487295   1.0000   0.0000   0.0000    3.1645877   -0.0005038   -0.0002600   0
    0  333.7773112  338.7828157  673.6843155   1.0000   0.0000   0.0000    3.1645877   -0.0005038   -0.0002600   0
    0  332.4283672  337.6091136  674.6516646   1.0000   0.0000   0.0000    3.1645877   -0.0005038   -0.0002600   0
    0  330.8155265  336.2344000  675.0464754   1.0000   0.0000   0.0000    3.1645877   -0.0005038   -0.0002600   0
    0  329.5466412  334.7994541  675.3558107   1.0000   0.0000   0.0000    3.1645877   -0.0005038   -0.0002600   0
    0  328.2110102  333.8178983  675.5793526   1.0000   0.0000   0.0000    3.1645877   -0.0005038   -0.0002600   0
    0  326.3957226  332.9911975  675.7378256   1.0000   0.0000   0.0000    3.1645877   -0.0005038   -0.0002600   0
    0  324.7580604  332.2177727  676.7490154   1.0000   0.0000   0.0000    3.1645877   -0.0005038   -0.0002600   0
    0  323.3195755  331.4103510  678.3525720   1.0000   0.0000   0.0000    3.1645877   -0.0005038   -0.0002600   0
    0  321.7736161  330.2549230  679.5203390   1.0000   0.0000   0.0000    3.1645877   -0.0005038   -0.0002600   0
    0  320.0743213  329.0160700  679.9119103   1.0000   0.0000   0.0000    3.1645877   -0.0005038   -0.0002600   0
    0  318.4865867  327.7090161  679.7223413   1.0000   0.0000   0.0000    3.1645877   -0.0005038   -0.0002600   0
    0  317.2735827  326.3297943  679.2187261   1.0000   0.0000   0.0000    3.1645877   -0.0005038   -0.0002600   0
    0  316.1215651  325.0467605  679.0287376   1.0000   0.0000   0.0000    3.1645877   -0.0005038   -0.0002600   0
    0  315.0985499  323.6914465  679.6694114   1.0000   0.0000   0.0000    3.1645877   -0.0005038   -0.0002600   0
    0  314.4793904  322.0104970  680.9108025   1.0000   0.0000   0.0000    3.1645877   -0.0005038   -0.0002600   0
    0  313.6407318  320.7305957  682.4106513   1.0000   0.0000   0.0000    3.1645877   -0.0005038   -0.0002600   0
    0  312.2964602  320.1185120  684.2190183   1.0000   0.0000   0.0000    3.1645877   -0.0005038   -0.0002600   0
    0  311.0894850  319.2781042  686.1333855   1.0000   0.0000   0.0000    3.1645877   -0.0005038   -0.0002600   0
    0  310.1666667  318.1315551  687.9944969   1.0000   0.0000   0.0000    3.1645877   -0.0005038   -0.0002600   0
    0  308.9423246  317.0721446  690.0156508   1.0000   0.0000   0.0000    3.1645877   -0.0005038   -0.0002600   0
    0  307.4830510  316.2973563  691.8145746   1.0000   0.0000   0.0000    3.1645877   -0.0005038   -0.0002600   0
    0  305.9767348  315.2301196  693.1153736   1.0000   0.0000   0.0000    3.1645877   -0.0005038   -0.0002600   0
    0  304.3754484  314.1932200  693.6408969   1.0000   0.0000   0.0000    3.1645877   -0.0005038   -0.0002600   0
    0  303.5784985  315.0050814  693.8150691   1.0000   0.0000   0.0000    3.1645877   -0.0005038   -0.0002600   0
    0  303.2774067  317.0405287  694.7636984   1.0000   0.0000   0.0000    3.1645877   -0.0005038   -0.0002600   0
    0  302.0815852  318.6131048  696.1682912   1.0000   0.0000   0.0000    3.1645877   -0.0005038   -0.0002600   0
    0  300.8316310  319.7107418  697.5395060   1.0000   0.0000   0.0000    3.1645877   -0.0005038   -0.0002600   0
    0  300.7811631  320.5291963  699.1891327   1.0000   0.0000   0.0000    3.1645877   -0.0005038   -0.0002600   0
    0  301.3827954  321.3330530  701.2567648   1.0000   0.0000   0.0000    3.1645877   -0.0005038   -0.0002600   0
    1  596.1645578  544.0108503  503.7734252   0.5000   0.5000   0.5000    1.5819619    1.5803982    1.5821361   1
    1  597.4490966  542.6295305  501.8561947   0.5000   0.5000   0.5000    1.5819619    1.5803982    1.5821361   1
    1  598.2792068  540.9242318  499.9889877   0.5000   0.5000   0.5000    1.5819619    1.5803982    1.5821361   1
    1  599.5873220  538.9630243  498.6825141   0.5000   0.5000   0.5000    1.5819619    1.5803982    1.5821361   1
    1  601.2977070  537.0136753  498.1953080   0.5000   0.5000   0.5000    1.5819619    1.5803982    1.5821361   1
    1  602.0387113  535.2049311  498.6173678   0.5000   0.5000   0.5000    1.5819619    1.5803982    1.5821361   1
    1  601.6213179  533.7796989  498.8830561   0.5000   0.5000   0.5000    1.5819619    1.5803982    1.5821361   1
    1  600.9729650  533.0287551  499.1568861   0.5000   0.5000   0.5000    1.5819619    1.5803982    1.5821361   1
    1  600.4325249  532.8174986  500.4402341   0.5000   0.5000   0.5000    1.5819619    1.5803982    1.5821361   1
    1  599.0499527  532.6809903  502.1812722   0.5000   0.5000   0.5000    1.5819619    1.5803982    1.5821361   1
    1  597.0865132  532.5101153  503.9867347   0.5000   0.5000   0.5000    1.5819619    1.5803982    1.5821361   1
    1  595.2446003  532.6518596  505.7334637   0.5000   0.5000   0.5000    1.5819619    1.5803982    1.5821361   1
    1  593.5452926  533.5241080  506.4976686   0.5000   0.5000   0.5000    1.5819619    1.5803982    1.5821361   1
    1  592.4414975  534.8512582  506.1916862   0.5000   0.5000   0.5000    1.5819619    1.5803982    1.5821361   1
    1  592.4300601  536.2212956  505.0919821   0.5000   0.5000   0.5000    1.5819619    1.5803982    1.5821361   1
    1  593.4065703  537.5133887  503.7693284   0.5000   0.5000   0.5000    1.5819619    1.5803982    1.5821361   1
    1  594.6221119  538.9622637  503.1336726   0.5000   0.5000   0.5000    1.5819619    1.5803982    1.5821361   1
    1  595.6773283  540.6410761  502.9176336   0.5000   0.5000   0.5000    1.5819619    1.5803982    1.5821361   1
    1  596.7077369  542.1910628  502.9185424   0.5000   0.5000   0.5000    1.5819619    1.5803982    1.5821361   1
    1  596.7653466  543.3492503  503.4206190   0.5000   0.5000   0.5000    1.5819619    1.5803982    1.5821361   1
    1  596.1645579  544.0108504  503.7734252   0.5000   0.5000   0.5000    1.5819619    1.5803982    1.5821361   1
    2  544.5902857  342.1007143  580.1271429  -0.5000  -0.5000  -0.5000   -1.5819619   -1.5803982   -1.5821361   0
    2  547.3492210  342.7231623  579.0371067  -0.5000  -0.5000  -0.5000   -1.5819619   -1.5803982   -1.5821361   0
    2  550.2812062  342.5968843  579.0206527  -0.5000  -0.5000  -0.5000   -1.5819619   -1.5803982   -1.5821361   0
    2  552.5171967  342.0079344  579.8219694  -0.5000  -0.5000  -0.5000   -1.5819619   -1.5803982   -1.5821361   0
    2  553.5524775  340.9011878  581.1047523  -0.5000  -0.5000  -0.5000   -1.5819619   -1.5803982   -1.5821361   0
    2  554.0713603  340.1869604  582.8476673  -0.5000  -0.5000  -0.5000   -1.5819619   -1.5803982   -1.5821361   0
    2  554.7728854  340.2389127  584.7453786  -0.5000  -0.5000  -0.5000   -1.5819619   -1.5803982   -1.5821361   0
    2  555.6328430  339.2007122  586.0855196  -0.5000  -0.5000  -0.5000   -1.5819619   -1.5803982   -1.5821361   0
    2  556.5049000  337.2357613  587.3802397  -0.5000  -0.5000  -0.5000   -1.5819619   -1.5803982   -1.5821361   0
    2  557.0729719  335.4976937  589.1486918  -0.5000  -0.5000  -0.5000   -1.5819619   -1.5803982   -1.5821361   0
    2  557.8479159  334.0856356  590.0142120  -0.5000  -0.5000  -0.5000   -1.5819619   -1.5803982   -1.5821361   0
    2  559.5554294  333.6682281  589.3789898  -0.5000  -0.5000  -0.5000   -1.5819619   -1.5803982   -1.5821361   0
    2  561.4325155  334.1606720  587.9962541  -0.5000  -0.5000  -0.5000   -1.5819619   -1.5803982   -1.5821361   0
    2  562.9881294  335.0298042  586.7881141  -0.5000  -0.5000  -0.5000   -1.5819619   -1.5803982   -1.5821361   0
    2  564.2786483  335.3144368  586.3096573  -0.5000  -0.5000  -0.5000   -1.5819619   -1.5803982   -1.5821361   0
    2  565.8789578  334.5579590  586.4162449  -0.5000  -0.5000  -0.5000   -1.5819619   -1.5803982   -1.5821361   0
    2  568.4078248  333.8800387  586.0823529  -0.5000  -0.5000  -0.5000   -1.5819619   -1.5803982   -1.5821361   0
    2  570.8489276  333.6834231  585.0648581  -0.5000  -0.5000  -0.5000   -1.5819619   -1.5803982   -1.5821361   0
    2  572.7325636  333.9788882  584.9714023  -0.5000  -0.5000  -0.5000   -1.5819619   -1.5803982   -1.5821361   0
    2  574.8507918  334.5458922  585.5898815  -0.5000  -0.5000  -0.5000   -1.5819619   -1.5803982   -1.5821361   0
    2  577.6089345  335.0525010  585.5994161  -0.5000  -0.5000  -0.5000   -1.5819619   -1.5803982   -1.5821361   0
    2  580.3160965  335.9121901  585.4476472  -0.5000  -0.5000  -0.5000   -1.5819619   -1.5803982   -1.5821361   0
    2  582.3341076  337.0459884  585.4216116  -0.5000  -0.5000  -0.5000   -1.5819619   -1.5803982   -1.5821361   0
    2  584.5366711  338.3125913  585.6101969  -0.5000  -0.5000  -0.5000   -1.5819619   -1.5803982   -1.5821361   0
    2  587.1618472  339.7962879  586.1336129  -0.5000  -0.5000  -0.5000   -1.5819619   -1.5803982   -1.5821361   0
    2  589.1107076  341.1100849  586.4483023  -0.5000  -0.5000  -0.5000   -1.5819619   -1.5803982   -1.5821361   0
    2  590.4824569  342.1386095  586.4318327  -0.5000  -0.5000  -0.5000   -1.5819619   -1.5803982   -1.5821361   0
    2  592.3683296  342.9766074  585.9629888  -0.5000  -0.5000  -0.5000   -1.5819619   -1.5803982   -1.5821361   0
    3  242.1674660  660.7504758  318.6082381  -0.5000  -0.5000   0.5000   -1.5822956   -1.5837437    1.5824112   1
    3  242.1222653  660.0690871  316.5026329  -0.5000  -0.5000   0.5000   -1.5822956   -1.5837437    1.5824112   1
    3  243.3756177  659.0065812  315.2012782  -0.5000  -0.5000   0.5000   -1.5822956   -1.5837437    1.5824112   1
    3  245.5312427  658.0569462  314.7228550  -0.5000  -0.5000   0.5000   -1.5822956   -1.5837437    1.5824112   1
    3  247.1512871  656.3768296  314.4331038  -0.5000  -0.5000   0.5000   -1.5822956   -1.5837437    1.5824112   1
    3  247.6310769  654.7832932  313.3775664  -0.5000  -0.5000   0.5000   -1.5822956   -1.5837437    1.5824112   1
    3  246.7977952  654.2873052  311.6492072  -0.5000  -0.5000   0.5000   -1.5822956   -1.5837437    1.5824112   1
    3  244.8519473  654.0223104  310.4899917  -0.5000  -0.5000   0.5000   -1.5822956   -1.5837437    1.5824112   1
    3  242.9646059  653.9236670  309.7632078  -0.5000  -0.5000   0.5000   -1.5822956   -1.5837437    1.5824112   1
    3  241.4614579  655.3227280  309.1899293  -0.5000  -0.5000   0.5000   -1.5822956   -1.5837437    1.5824112   1
    3  240.3308118  657.9352211  309.1058427  -0.5000  -0.5000   0.5000   -1.5822956   -1.5837437    1.5824112   1
    3  239.9360590  660.4684188  309.3180485  -0.5000  -0.5000   0.5000   -1.5822956   -1.5837437    1.5824112   1
    3  239.9871185  662.0807114  310.2558411  -0.5000  -0.5000   0.5000   -1.5822956   -1.5837437    1.5824112   1
    3  240.4007354  662.4204497  312.3148413  -0.5000  -0.5000   0.5000   -1.5822956   -1.5837437    1.5824112   1
    3  240.8235045  661.9389431  314.5434615  -0.5000  -0.5000   0.5000   -1.5822956   -1.5837437    1.5824112   1
    3  240.8665148  660.9728280  316.4778537  -0.5000  -0.5000   0.5000   -1.5822956   -1.5837437    1.5824112   1
    3  241.2319681  660.4618583  317.9933460  -0.5000  -0.5000   0.5000   -1.5822956   -1.5837437    1.5824112   1
    3  242.1674660  660.7504757  318.6082381  -0.5000  -0.5000   0.5000   -1.5822956   -1.5837437    1.5824112   1
    4  631.8897144  170.7605000  132.4830714  -0.5000   0.5000   0.5000   -1.5826258    1.5809021    1.5823960   0
    4  632.6628652  170.3554310  130.9087176  -0.5000   0.5000   0.5000   -1.5826258    1.5809021    1.5823960   0
    4  633.3964069  170.3629418  129.2818868  -0.5000   0.5000   0.5000   -1.5826258    1.5809021    1.5823960   0
    4  633.9883938  171.0055840  127.0025248  -0.5000   0.5000   0.5000   -1.5826258    1.5809021    1.5823960   0
    4  634.6677465  171.9564999  125.0503296  -0.5000   0.5000   0.5000   -1.5826258    1.5809021    1.5823960   0
    4  635.8987555  173.1843274  124.7573038  -0.5000   0.5000   0.5000   -1.5826258    1.5809021    1.5823960   0
    4  638.0251618  173.9298947  125.4204334  -0.5000   0.5000   0.5000   -1.5826258    1.5809021    1.5823960   0
    4  640.0876790  173.7644538  126.7227956  -0.5000   0.5000   0.5000   -1.5826258    1.5809021    1.5823960   0
    4  640.9408922  173.3962780  129.0366165  -0.5000   0.5000   0.5000   -1.5826258    1.5809021    1.5823960   0
    4  640.8863593  172.5654006  131.3124912  -0.5000   0.5000   0.5000   -1.5826258    1.5809021    1.5823960   0
    4  640.6884498  170.9085142  132.7774675  -0.5000   0.5000   0.5000   -1.5826258    1.5809021    1.5823960   0
    4  640.2733622  169.7613908  134.0535874  -0.5000   0.5000   0.5000   -1.5826258    1.5809021    1.5823960   0
    4  639.4380203  169.5316220  134.8528202  -0.5000   0.5000   0.5000   -1.5826258    1.5809021    1.5823960   0
    4  638.6981429  169.1351429  134.9741428  -0.5000   0.5000   0.5000   -1.5826258    1.5809021    1.5823960   0
    5  644.9739834  114.4472347  573.4466236  -0.5000   0.5000   0.5000   -1.5826258    1.5809021    1.5823960   0
    5  645.8962308  117.0006600  574.6975280  -0.5000   0.5000   0.5000   -1.5826258    1.5809021    1.5823960   0
    5  645.7119943  119.0867066  575.4604096  -0.5000   0.5000   0.5000   -1.5826258    1.5809021    1.5823960   0
    5  645.3739231  120.8562294  576.2294214  -0.5000   0.5000   0.5000   -1.5826258    1.5809021    1.5823960   0
    5  645.5088101  122.4594567  577.2870926  -0.5000   0.5000   0.5000   -1.5826258    1.5809021    1.5823960   0
    5  645.4749258  123.9561607  578.7117746  -0.5000   0.5000   0.5000   -1.5826258    1.5809021    1.5823960   0
    5  644.9838211  125.1873081  580.7337760  -0.5000   0.5000   0.5000   -1.5826258    1.5809021    1.5823960   0
    5  644.4154099  126.2725716  582.7536078  -0.5000   0.5000   0.5000   -1.5826258    1.5809021    1.5823960   0
    5  643.3630673  127.6866477  584.4277968  -0.5000   0.5000   0.5000   -1.5826258    1.5809021    1.5823960   0
    5  641.7124269  129.3055804  586.0853494  -0.5000   0.5000   0.5000   -1.5826258    1.5809021    1.5823960   0
    5  640.0464034  130.8522196  587.6912368  -0.5000   0.5000   0.5000   -1.5826258    1.5809021    1.5823960   0
    5  638.8489917  132.6797166  589.0739538  -0.5000   0.5000   0.5000   -1.5826258    1.5809021    1.5823960   0
    5  638.0808459  135.0665857  590.0701993  -0.5000   0.5000   0.5000   -1.5826258    1.5809021    1.5823960   0
    5  637.2260886  137.4627189  590.9726773  -0.5000   0.5000   0.5000   -1.5826258    1.5809021    1.5823960   0
    5  636.7611706  139.1829592  592.4708586  -0.5000   0.5000   0.5000   -1.5826258    1.5809021    1.5823960   0
    5  636.4498091  140.4390719  594.3790135  -0.5000   0.5000   0.5000   -1.5826258    1.5809021    1.5823960   0
    5  635.1509593  142.0971747  596.2029484  -0.5000   0.5000   0.5000   -1.5826258    1.5809021    1.5823960   0
    5  633.7901779  144.2045025  597.6301382  -0.5000   0.5000   0.5000   -1.5826258    1.5809021    1.5823960   0
    5  633.1562008  146.0788404  598.5607754  -0.5000   0.5000   0.5000   -1.5826258    1.5809021    1.5823960   0
    5  632.3173497  147.7169899  599.3584390  -0.5000   0.5000   0.5000   -1.5826258    1.5809021    1.5823960   0
    5  630.6742174  149.5401872  600.6578030  -0.5000   0.5000   0.5000   -1.5826258    1.5809021    1.5823960   0
    5  628.8353968  151.3132857  602.7543547  -0.5000   0.5000   0.5000   -1.5826258    1.5809021    1.5823960   0
    5  627.8424286  152.5641244  604.5327568  -0.5000   0.5000   0.5000   -1.5826258    1.5809021    1.5823960   0
    5  627.3586988  153.4447436  605.8239330  -0.5000   0.5000   0.5000   -1.5826258    1.5809021    1.5823960   0
    5  626.5588666  154.3934000  607.8160666  -0.5000   0.5000   0.5000   -1.5826258    1.5809021    1.5823960   0
    6  544.5902857  342.1007143  580.1271429   0.5000   0.5000   0.5000    1.5819619    1.5803982    1.5821361   0
    6  543.5693156  339.9846126  582.5063720   0.5000   0.5000   0.5000    1.5819619    1.5803982    1.5821361   0
    6  543.7282013  338.2655958  584.4171027   0.5000   0.5000   0.5000    1.5819619    1.5803982    1.5821361   0
    6  544.0814210  336.9176394  586.0846153   0.5000   0.5000   0.5000    1.5819619    1.5803982    1.5821361   0
    6  543.0934196  336.3898263  587.9391223   0.5000   0.5000   0.5000    1.5819619    1.5803982    1.5821361   0
    6  540.6566697  336.6076403  589.0837093   0.5000   0.5000   0.5000    1.5819619    1.5803982    1.5821361   0
    6  538.3723330  337.3159948  589.6089166   0.5000   0.5000   0.5000    1.5819619    1.5803982    1.5821361   0
    6  536.9726867  338.7473419  589.7729906   0.5000   0.5000   0.5000    1.5819619    1.5803982    1.5821361   0
    6  536.0346306  341.6068028  589.7012111   0.5000   0.5000   0.5000    1.5819619    1.5803982    1.5821361   0
    7  496.6026667   72.9070976  551.5959062  -0.5000   0.5000  -0.5000   -1.5822921    1.5842476   -1.5821512   0
    7  495.2285120   75.1425271  549.8695079  -0.5000   0.5000  -0.5000   -1.5822921    1.5842476   -1.5821512   0
    7  493.7504558   77.0520075  548.6728740  -0.5000   0.5000  -0.5000   -1.5822921    1.5842476   -1.5821512   0
    7  492.0709436   78.8025206  547.5365277  -0.5000   0.5000  -0.5000   -1.5822921    1.5842476   -1.5821512   0
    7  490.2244246   80.4712966  546.4119015  -0.5000   0.5000  -0.5000   -1.5822921    1.5842476   -1.5821512   0
    7  488.5772475   82.1263501  545.3033111  -0.5000   0.5000  -0.5000   -1.5822921    1.5842476   -1.5821512   0
    7  487.3754292   83.8302429  544.7735626  -0.5000   0.5000  -0.5000   -1.5822921    1.5842476   -1.5821512   0
    7  485.9326797   85.2908519  544.6380273  -0.5000   0.5000  -0.5000   -1.5822921    1.5842476   -1.5821512   0
    7  483.9258611   86.6510807  543.5822218  -0.5000   0.5000  -0.5000   -1.5822921    1.5842476   -1.5821512   0
    7  482.0794182   88.6123237  542.1586077  -0.5000   0.5000  -0.5000   -1.5822921    1.5842476   -1.5821512   0
    7  480.5971842   90.8022303  541.2023177  -0.5000   0.5000  -0.5000   -1.5822921    1.5842476   -1.5821512   0
    7  478.8685599   92.4191306  540.4738304  -0.5000   0.5000  -0.5000   -1.5822921    1.5842476   -1.5821512   0
    7  476.9060876   93.8309153  539.7084525  -0.5000   0.5000  -0.5000   -1.5822921    1.5842476   -1.5821512   0
    7  475.2582218   95.3276549  538.4900435  -0.5000   0.5000  -0.5000   -1.5822921    1.5842476   -1.5821512   0
    7  473.9956173   96.6251608  537.0248957  -0.5000   0.5000  -0.5000   -1.5822921    1.5842476   -1.5821512   0
    7  472.9875834   97.7345451  535.5298167  -0.5000   0.5000  -0.5000   -1.5822921    1.5842476   -1.5821512   0
    8  -45.5733769   62.2741266  625.9892111  -0.5000   0.5000   0.5000   -1.5826258    1.5809021    1.5823960   0
    8  -43.2327567   61.5548684  626.2367031  -0.5000   0.5000   0.5000   -1.5826258    1.5809021    1.5823960   0
    8  -40.9094503   61.4216844  625.8082798  -0.5000   0.5000   0.5000   -1.5826258    1.5809021    1.5823960   0
    8  -39.0830176   61.5704253  624.9534045  -0.5000   0.5000   0.5000   -1.5826258    1.5809021    1.5823960   0
    8  -37.1872667   61.1754446  624.5302359  -0.5000   0.5000   0.5000   -1.5826258    1.5809021    1.5823960   0
    8  -35.4250953   60.2898920  625.2611481  -0.5000   0.5000   0.5000   -1.5826258    1.5809021    1.5823960   0
    8  -34.6954768   60.7001358  625.7121784  -0.5000   0.5000   0.5000   -1.5826258    1.5809021    1.5823960   0
    8  -34.3593824   61.9814821  624.5425496  -0.5000   0.5000   0.5000   -1.5826258    1.5809021    1.5823960   0
    8  -33.3526161   62.9402283  623.2052752  -0.5000   0.5000   0.5000   -1.5826258    1.5809021    1.5823960   0
    8  -31.9876486   64.0511077  622.4831673  -0.5000   0.5000   0.5000   -1.5826258    1.5809021    1.5823960   0
    8  -30.0051399   64.8576740  621.8353835  -0.5000   0.5000   0.5000   -1.5826258    1.5809021    1.5823960   0
    8  -26.7509244   64.8761977  621.6210234  -0.5000   0.5000   0.5000   -1.5826258    1.5809021    1.5823960   0
    8  -23.8640951   64.8845391  622.4229964  -0.5000   0.5000   0.5000   -1.5826258    1.5809021    1.5823960   0
    8  -22.4437086   65.7106710  623.6271648  -0.5000   0.5000   0.5000   -1.5826258    1.5809021    1.5823960   0
    8  -21.0790643   67.1419786  624.1631490  -0.5000   0.5000   0.5000   -1.5826258    1.5809021    1.5823960   0
    8  -18.8529826   68.1529047  624.0833292  -0.5000   0.5000   0.5000   -1.5826258    1.5809021    1.5823960   0
    8  -16.7019284   69.0067449  623.9278258  -0.5000   0.5000   0.5000   -1.5826258    1.5809021    1.5823960   0
    8  -15.3392159   70.2910141  624.2900329  -0.5000   0.5000   0.5000   -1.5826258    1.5809021    1.5823960   0
    8  -13.7636375   71.1837774  624.9005939  -0.5000   0.5000   0.5000   -1.5826258    1.5809021    1.5823960   0
    8  -11.4144630   71.5313562  625.4071902  -0.5000   0.5000   0.5000   -1.5826258    1.5809021    1.5823960   0
    8   -9.1720167   71.7956216  626.4635726  -0.5000   0.5000   0.5000   -1.5826258    1.5809021    1.5823960   0
    8   -7.5856939   71.4421671  628.0322367  -0.5000   0.5000   0.5000   -1.5826258    1.5809021    1.5823960   0
    8   -6.5188440   70.2934807  629.6115140  -0.5000   0.5000   0.5000   -1.5826258    1.5809021    1.5823960   0
    8   -6.1830490   69.0524715  630.9010468  -0.5000   0.5000   0.5000   -1.5826258    1.5809021    1.5823960   0
    8   -6.7770286   67.9983962  632.1645829  -0.5000   0.5000   0.5000   -1.5826258    1.5809021    1.5823960   0
    8   -7.5998030   66.9538605  633.7016878  -0.5000   0.5000   0.5000   -1.5826258    1.5809021    1.5823960   0
    8   -8.1504692   65.5054207  634.6872133  -0.5000   0.5000   0.5000   -1.5826258    1.5809021    1.5823960   0
    8   -7.7926017   64.0386079  635.0999739  -0.5000   0.5000   0.5000   -1.5826258    1.5809021    1.5823960   0
    8   -5.6488726   63.4838646  635.6547995  -0.5000   0.5000   0.5000   -1.5826258    1.5809021    1.5823960   0
    8   -3.0329697   63.2008361  636.5539553  -0.5000   0.5000   0.5000   -1.5826258    1.5809021    1.5823960   0
    8   -1.4597763   62.7467794  638.1587575  -0.5000   0.5000   0.5000   -1.5826258    1.5809021    1.5823960   0
    8   -0.0118059   62.1092357  639.7823703  -0.5000   0.5000   0.5000   -1.5826258    1.5809021    1.5823960   0
    8    1.2937161   60.8354281  640.9042990  -0.5000   0.5000   0.5000   -1.5826258    1.5809021    1.5823960   0
    8    2.2019125   59.6762618  641.6193344  -0.5000   0.5000   0.5000   -1.5826258    1.5809021    1.5823960   0
    8    3.7641323   59.5470067  641.2843965  -0.5000   0.5000   0.5000   -1.5826258    1.5809021    1.5823960   0
    8    5.9578013   60.3175400  640.6135418  -0.5000   0.5000   0.5000   -1.5826258    1.5809021    1.5823960   0
    8    8.1788921   60.9877483  641.1050844  -0.5000   0.5000   0.5000   -1.5826258    1.5809021    1.5823960   0
    8    9.6815770   61.5780392  641.9962790  -0.5000   0.5000   0.5000   -1.5826258    1.5809021    1.5823960   0
    8    9.8690557   62.7773263  641.4937656  -0.5000   0.5000   0.5000   -1.5826258    1.5809021    1.5823960   0
    8    9.3142082   64.1159931  639.7895459  -0.5000   0.5000   0.5000   -1.5826258    1.5809021    1.5823960   0
    8    9.3984370   65.2665548  638.0967193  -0.5000   0.5000   0.5000   -1.5826258    1.5809021    1.5823960   0
    8   10.4669856   66.4249567  636.8415749  -0.5000   0.5000   0.5000   -1.5826258    1.5809021    1.5823960   0
    8   11.6484670   67.9865162  636.1483840  -0.5000   0.5000   0.5000   -1.5826258    1.5809021    1.5823960   0
    8   13.4791526   69.2977255  635.9200768  -0.5000   0.5000   0.5000   -1.5826258    1.5809021    1.5823960   0
    8   16.4840369   69.6340460  635.8744883  -0.5000   0.5000   0.5000   -1.5826258    1.5809021    1.5823960   0
    8   19.2673334   70.0281323  636.1324363  -0.5000   0.5000   0.5000   -1.5826258    1.5809021    1.5823960   0
    8   21.0169885   71.0623951  636.5806820  -0.5000   0.5000   0.5000   -1.5826258    1.5809021    1.5823960   0
    8   22.0618824   72.2415236  636.2410209  -0.5000   0.5000   0.5000   -1.5826258    1.5809021    1.5823960   0
    8   22.7590821   73.6775796  634.9470277  -0.5000   0.5000   0.5000   -1.5826258    1.5809021    1.5823960   0
    8   23.7591022   75.7646560  633.9977174  -0.5000   0.5000   0.5000   -1.5826258    1.5809021    1.5823960   0
    8   25.1501561   77.5555817  633.2838100  -0.5000   0.5000   0.5000   -1.5826258    1.5809021    1.5823960   0
    8   25.8821390   78.6244351  631.4647771  -0.5000   0.5000   0.5000   -1.5826258    1.5809021    1.5823960   0
    8   25.9720676   80.1156910  629.2149204  -0.5000   0.5000   0.5000   -1.5826258    1.5809021    1.5823960   0
    8   26.2091187   82.1839397  627.9369997  -0.5000   0.5000   0.5000   -1.5826258    1.5809021    1.5823960   0
    8   26.7408949   84.1006153  627.2547278  -0.5000   0.5000   0.5000   -1.5826258    1.5809021    1.5823960   0
    8   27.3709565   85.9071956  626.3931833  -0.5000   0.5000   0.5000   -1.5826258    1.5809021    1.5823960   0
    8   28.0584771   87.6597315  625.5507649  -0.5000   0.5000   0.5000   -1.5826258    1.5809021    1.5823960   0
    8   28.9107798   88.9104267  625.0338799  -0.5000   0.5000   0.5000   -1.5826258    1.5809021    1.5823960   0
    8   30.0906854   89.8929537  624.8450924  -0.5000   0.5000   0.5000   -1.5826258    1.5809021    1.5823960   0