ITEM: TIMESTEP
0
ITEM: NUMBER OF ATOMS
15623
ITEM: BOX BOUNDS pp pp pp 
0.0 696.584574
0.0 696.587182
0.0 696.591508
ITEM: ATOMS id x y z tbx tby tbz sbx sby sbz loop
    0  550.4522381  201.1084286   91.7497120  -0.0000  -0.0000   1.0000   -0.0000181    0.0000383    3.1652515   0
    0  552.7505190  199.4073665   91.7703999  -0.0000  -0.0000   1.0000   -0.0000181    0.0000383    3.1652515   0
    0  555.0832934  198.4884004   91.7315556  -0.0000  -0.0000   1.0000   -0.0000181    0.0000383    3.1652515   0
    0  557.0014971  198.8075873   91.6617776  -0.0000  -0.0000   1.0000   -0.0000181    0.0000383    3.1652515   0
    0  557.9695143  200.1760562   91.6996180  -0.0000  -0.0000   1.0000   -0.0000181    0.0000383    3.1652515   0
    0  557.9563881  202.0465650   92.0906069  -0.0000  -0.0000   1.0000   -0.0000181    0.0000383    3.1652515   0
    0  557.8853336  204.1740983   92.2970596  -0.0000  -0.0000   1.0000   -0.0000181    0.0000383    3.1652515   0
    0  557.7508240  206.4513885   92.4097742  -0.0000  -0.0000   1.0000   -0.0000181    0.0000383    3.1652515   0
    0  556.9019455  208.5920289   93.0616931  -0.0000  -0.0000   1.0000   -0.0000181    0.0000383    3.1652515   0
    0  555.4449463  210.2438646   93.5781026  -0.0000  -0.0000   1.0000   -0.0000181    0.0000383    3.1652515   0
    0  553.2468816  211.4690592   93.5472093  -0.0000  -0.0000   1.0000   -0.0000181    0.0000383    3.1652515   0
    1  547.4938156  411.9497893   62.6840287   0.5000   0.5000  -0.5000    1.5826237    1.5826033   -1.5826190   1
    1  548.7258120  412.6931607   62.8629927   0.5000   0.5000  -0.5000    1.5826237    1.5826033   -1.5826190   1
    1  550.4299786  412.5334236   62.5395383   0.5000   0.5000  -0.5000    1.5826237    1.5826033   -1.5826190   1
    1  551.7980383  410.9178017   61.9041205   0.5000   0.5000  -0.5000    1.5826237    1.5826033   -1.5826190   1
    1  553.1855410  409.2521351   61.7088496   0.5000   0.5000  -0.5000    1.5826237    1.5826033   -1.5826190   1
    1  554.8002312  408.0100519   62.1097130   0.5000   0.5000  -0.5000    1.5826237    1.5826033   -1.5826190   1
    1  556.1040561  406.5141778   62.6057742   0.5000   0.5000  -0.5000    1.5826237    1.5826033   -1.5826190   1
    1  557.0725570  404.9321296   61.9951680   0.5000   0.5000  -0.5000    1.5826237    1.5826033   -1.5826190   1
    1  557.3575965  403.7311097   60.1973337   0.5000   0.5000  -0.5000    1.5826237    1.5826033   -1.5826190   1
    1  556.7433424  402.5353281   58.4232188   0.5000   0.5000  -0.5000    1.5826237    1.5826033   -1.5826190   1
    1  556.0470855  401.2518390   56.8136577   0.5000   0.5000  -0.5000    1.5826237    1.5826033   -1.5826190   1
    1  555.5856898  399.9413947   55.0333001   0.5000   0.5000  -0.5000    1.5826237    1.5826033   -1.5826190   1
    1  555.0124587  398.3451205   53.5888624   0.5000   0.5000  -0.5000    1.5826237    1.5826033   -1.5826190   1
    1  554.0201386  397.2399292   52.1374495   0.5000   0.5000  -0.5000    1.5826237    1.5826033   -1.5826190   1
    1  552.4376274  396.9097153   50.6372356   0.5000   0.5000  -0.5000    1.5826237    1.5826033   -1.5826190   1
    1  550.6406926  396.9458362   49.7604202   0.5000   0.5000  -0.5000    1.5826237    1.5826033   -1.5826190   1
    1  549.5371337  397.9228200   49.7238750   0.5000   0.5000  -0.5000    1.5826237    1.5826033   -1.5826190   1
    1  549.5095414  399.7863554   50.4234701   0.5000   0.5000  -0.5000    1.5826237    1.5826033   -1.5826190   1
    1  549.7415029  401.4356573   51.3626584   0.5000   0.5000  -0.5000    1.5826237    1.5826033   -1.5826190   1
    1  549.4852658  402.7399448   52.5698485   0.5000   0.5000  -0.5000    1.5826237    1.5826033   -1.5826190   1
    1  549.2541406  403.9994989   54.1795272   0.5000   0.5000  -0.5000    1.5826237    1.5826033   -1.5826190   1
    1  549.1599067  405.7272886   55.8867552   0.5000   0.5000  -0.5000    1.5826237    1.5826033   -1.5826190   1
    1  548.8243756  407.8879742   57.5273913   0.5000   0.5000  -0.5000    1.5826237    1.5826033   -1.5826190   1
    1  548.4590384  409.4501652   59.1049797   0.5000   0.5000  -0.5000    1.5826237    1.5826033   -1.5826190   1
    1  548.2327394  410.4067670   60.4026116   0.5000   0.5000  -0.5000    1.5826237    1.5826033   -1.5826190   1
    1  547.9079890  411.0245114   61.3430189   0.5000   0.5000  -0.5000    1.5826237    1.5826033   -1.5826190   1
    1  547.4938156  411.9497893   62.6840287   0.5000   0.5000  -0.5000    1.5826237    1.5826033   -1.5826190   1
    2   88.6430289  404.9830404  642.2717707   1.0000  -0.0000  -0.0000    3.1652558   -0.0000107    0.0000220   1
    2   87.4686914  404.5962565  640.5710489   1.0000  -0.0000  -0.0000    3.1652558   -0.0000107    0.0000220   1
    2   85.5788016  404.7892405  638.2299194   1.0000  -0.0000  -0.0000    3.1652558   -0.0000107    0.0000220   1
    2   84.7595783  405.9890559  636.2017870   1.0000  -0.0000  -0.0000    3.1652558   -0.0000107    0.0000220   1
    2   84.7722229  407.3828668  634.5442539   1.0000  -0.0000  -0.0000    3.1652558   -0.0000107    0.0000220   1
    2   84.7990803  408.7060594  633.3696568   1.0000  -0.0000  -0.0000    3.1652558   -0.0000107    0.0000220   1
    2   85.2543203  410.3165811  632.5069314   1.0000  -0.0000  -0.0000    3.1652558   -0.0000107    0.0000220   1
    2   85.5421352  412.4880335  631.9736052   1.0000  -0.0000  -0.0000    3.1652558   -0.0000107    0.0000220   1
    2   85.5283723  414.7535226  631.7363411   1.0000  -0.0000  -0.0000    3.1652558   -0.0000107    0.0000220   1
    2   86.1299910  416.7335682  631.8812121   1.0000  -0.0000  -0.0000    3.1652558   -0.0000107    0.0000220   1
    2   87.0566135  418.6430636  632.5426911   1.0000  -0.0000  -0.0000    3.1652558   -0.0000107    0.0000220   1
    2   88.0369045  420.3467447  633.2017401   1.0000  -0.0000  -0.0000    3.1652558   -0.0000107    0.0000220   1
    2   89.1400609  421.2046029  634.0573812   1.0000  -0.0000  -0.0000    3.1652558   -0.0000107    0.0000220   1
    2   89.8582484  421.3218241  635.6086851   1.0000  -0.0000  -0.0000    3.1652558   -0.0000107    0.0000220   1
    2   90.6282868  420.8782996  637.1952878   1.0000  -0.0000  -0.0000    3.1652558   -0.0000107    0.0000220   1
    2   91.3205537  419.8873253  638.6974514   1.0000  -0.0000  -0.0000    3.1652558   -0.0000107    0.0000220   1
    2   91.6605945  418.6781052  640.4038407   1.0000  -0.0000  -0.0000    3.1652558   -0.0000107    0.0000220   1
    2   92.4396060  416.7704656  641.5466344   1.0000  -0.0000  -0.0000    3.1652558   -0.0000107    0.0000220   1
    2   92.9289068  414.5918680  642.6052697   1.0000  -0.0000  -0.0000    3.1652558   -0.0000107    0.0000220   1
    2   92.5672247  413.1359707  644.6932020   1.0000  -0.0000  -0.0000    3.1652558   -0.0000107    0.0000220   1
    2   91.8203828  411.5292251  646.0612093   1.0000  -0.0000  -0.0000    3.1652558   -0.0000107    0.0000220   1
    2   90.7990310  409.4541487  645.5509841   1.0000  -0.0000  -0.0000    3.1652558   -0.0000107    0.0000220   1
    2   89.9927690  407.7047772  644.5140795   1.0000  -0.0000  -0.0000    3.1652558   -0.0000107    0.0000220   1
    2   89.5161337  406.4992669  643.7124176   1.0000  -0.0000  -0.0000    3.1652558   -0.0000107    0.0000220   1
    2   88.6430290  404.9830402  642.2717706   1.0000  -0.0000  -0.0000    3.1652558   -0.0000107    0.0000220   1
    3  457.4243566  603.6755054  573.3939708  -0.0000   1.0000  -0.0000   -0.0000265    3.1652557   -0.0000085   1
    3  458.9470308  603.1017699  572.3092904  -0.0000   1.0000  -0.0000   -0.0000265    3.1652557   -0.0000085   1
    3  460.8714486  602.3689532  570.9831298  -0.0000   1.0000  -0.0000   -0.0000265    3.1652557   -0.0000085   1
    3  462.2707762  602.3093489  568.9989112  -0.0000   1.0000  -0.0000   -0.0000265    3.1652557   -0.0000085   1
    3  463.0958728  602.4928514  566.9988153  -0.0000   1.0000  -0.0000   -0.0000265    3.1652557   -0.0000085   1
    3  462.8432873  602.5065101  565.5281215  -0.0000   1.0000  -0.0000   -0.0000265    3.1652557   -0.0000085   1
    3  461.4201918  602.4463844  564.3212512  -0.0000   1.0000  -0.0000   -0.0000265    3.1652557   -0.0000085   1
    3  459.8285683  602.4083074  563.3182471  -0.0000   1.0000  -0.0000   -0.0000265    3.1652557   -0.0000085   1
    3  458.3405238  602.3148089  562.9919407  -0.0000   1.0000  -0.0000   -0.0000265    3.1652557   -0.0000085   1
    3  456.7385350  601.6867433  563.2601907  -0.0000   1.0000  -0.0000   -0.0000265    3.1652557   -0.0000085   1
    3  455.1204899  601.6704359  564.0282347  -0.0000   1.0000  -0.0000   -0.0000265    3.1652557   -0.0000085   1
    3  453.5537593  602.3320622  565.3147715  -0.0000   1.0000  -0.0000   -0.0000265    3.1652557   -0.0000085   1
    3  452.1954274  602.5605624  566.9394440  -0.0000   1.0000  -0.0000   -0.0000265    3.1652557   -0.0000085   1
    3  451.8568664  602.9482455  568.7395287  -0.0000   1.0000  -0.0000   -0.0000265    3.1652557   -0.0000085   1
    3  453.1839313  603.5925193  570.3068377  -0.0000   1.0000  -0.0000   -0.0000265    3.1652557   -0.0000085   1
    3  454.9646469  604.2381820  571.7249716  -0.0000   1.0000  -0.0000   -0.0000265    3.1652557   -0.0000085   1
    3  456.0072442  604.3780838  572.8544219  -0.0000   1.0000  -0.0000   -0.0000265    3.1652557   -0.0000085   1
    3  457.4243566  603.6755054  573.3939708  -0.0000   1.0000  -0.0000   -0.0000265    3.1652557   -0.0000085   1
    4  486.4803492  366.8466030  606.1261101  -0.0000  -0.0000   1.0000   -0.0000181    0.0000383    3.1652515   1
    4  484.9952191  367.1960173  606.5347195  -0.0000  -0.0000   1.0000   -0.0000181    0.0000383    3.1652515   1
    4  482.6208464  367.5832206  607.4384626  -0.0000  -0.0000   1.0000   -0.0000181    0.0000383    3.1652515   1
    4  480.0964586  367.0805236  607.6945822  -0.0000  -0.0000   1.0000   -0.0000181    0.0000383    3.1652515   1
    4  478.0850308  365.7841643  607.3547153  -0.0000  -0.0000   1.0000   -0.0000181    0.0000383    3.1652515   1
    4  477.0638026  364.2587811  607.3525055  -0.0000  -0.0000   1.0000   -0.0000181    0.0000383    3.1652515   1
    4  477.4112393  363.0926867  607.7239310  -0.0000  -0.0000   1.0000   -0.0000181    0.0000383    3.1652515   1
    4  478.7707490  362.0352152  607.8588919  -0.0000  -0.0000   1.0000   -0.0000181    0.0000383    3.1652515   1
    4  480.2389691  360.5375394  607.4074902  -0.0000  -0.0000   1.0000   -0.0000181    0.0000383    3.1652515   1
    4  481.5547934  359.0290718  605.9935058  -0.0000  -0.0000   1.0000   -0.0000181    0.0000383    3.1652515   1
    4  483.1422131  358.3399565  604.3570175  -0.0000  -0.0000   1.0000   -0.0000181    0.0000383    3.1652515   1
    4  485.0779431  358.7545170  603.3712198  -0.0000  -0.0000   1.0000   -0.0000181    0.0000383    3.1652515   1
    4  486.5703630  360.3013008  603.0489347  -0.0000  -0.0000   1.0000   -0.0000181    0.0000383    3.1652515   1
    4  487.1877113  362.3799789  603.8606707  -0.0000  -0.0000   1.0000   -0.0000181    0.0000383    3.1652515   1
    4  487.1949144  364.2862951  605.0320870  -0.0000  -0.0000   1.0000   -0.0000181    0.0000383    3.1652515   1
    4  486.4803492  366.8466030  606.1261101  -0.0000  -0.0000   1.0000   -0.0000181    0.0000383    3.1652515   1
    5  449.9102411  430.9988438  498.2391250  -0.5000   0.5000  -0.5000   -1.5826321    1.5826140   -1.5826410   0
    5  449.0185253  435.1632176  500.0241260  -0.5000   0.5000  -0.5000   -1.5826321    1.5826140   -1.5826410   0
    5  449.0778839  437.6601899  501.4477015  -0.5000   0.5000  -0.5000   -1.5826321    1.5826140   -1.5826410   0
    5  450.3036408  439.1145144  502.3074753  -0.5000   0.5000  -0.5000   -1.5826321    1.5826140   -1.5826410   0
    5  452.2855762  440.0654974  502.0145705  -0.5000   0.5000  -0.5000   -1.5826321    1.5826140   -1.5826410   0
    5  454.1002267  439.8063981  500.6979548  -0.5000   0.5000  -0.5000   -1.5826321    1.5826140   -1.5826410   0
    5  455.6616144  438.7253971  499.4172413  -0.5000   0.5000  -0.5000   -1.5826321    1.5826140   -1.5826410   0
    5  457.5617368  438.8222951  498.6206640  -0.5000   0.5000  -0.5000   -1.5826321    1.5826140   -1.5826410   0
    5  459.2535182  439.6915904  497.7408261  -0.5000   0.5000  -0.5000   -1.5826321    1.5826140   -1.5826410   0
    5  459.7282357  439.0957612  496.8645737  -0.5000   0.5000  -0.5000   -1.5826321    1.5826140   -1.5826410   0
    5  459.1476946  437.1405070  497.2022133  -0.5000   0.5000  -0.5000   -1.5826321    1.5826140   -1.5826410   0
    5  458.3871880  435.0133360  498.5214864  -0.5000   0.5000  -0.5000   -1.5826321    1.5826140   -1.5826410   0
    5  457.3649778  433.0082921  499.0299430  -0.5000   0.5000  -0.5000   -1.5826321    1.5826140   -1.5826410   0
    5  455.3968528  431.3212172  498.6952501  -0.5000   0.5000  -0.5000   -1.5826321    1.5826140   -1.5826410   0
    5  453.2160524  430.3183905  498.4566689  -0.5000   0.5000  -0.5000   -1.5826321    1.5826140   -1.5826410   0
    5  451.7474223  430.1693872  498.3643650  -0.5000   0.5000  -0.5000   -1.5826321    1.5826140   -1.5826410   0
    5  449.9102411  430.9988438  498.2391250  -0.5000   0.5000  -0.5000   -1.5826321    1.5826140   -1.5826410   0
    6  490.8408833  497.5429777  386.3388499  -0.5000  -0.5000  -0.5000   -1.5826056   -1.5826416   -1.5826325   0
    6  491.9635436  499.9373057  387.2864531  -0.5000  -0.5000  -0.5000   -1.5826056   -1.5826416   -1.5826325   0
    6  493.6726508  501.7820967  388.9131363  -0.5000  -0.5000  -0.5000   -1.5826056   -1.5826416   -1.5826325   0
    6  495.2740229  503.4088427  390.3820244  -0.5000  -0.5000  -0.5000   -1.5826056   -1.5826416   -1.5826325   0
    6  496.9135864  504.9476647  392.1633428  -0.5000  -0.5000  -0.5000   -1.5826056   -1.5826416   -1.5826325   0
    6  498.5792056  506.3915044  393.9610622  -0.5000  -0.5000  -0.5000   -1.5826056   -1.5826416   -1.5826325   0
    6  499.6982086  508.1075687  394.9540814  -0.5000  -0.5000  -0.5000   -1.5826056   -1.5826416   -1.5826325   0
    6  500.2126667  509.8929167  395.8483333  -0.5000  -0.5000  -0.5000   -1.5826056   -1.5826416   -1.5826325   0
    7  532.7816738  504.3965531  460.1110307  -0.0000  -1.0000  -0.0000    0.0000265   -3.1652557    0.0000085   1
    7  532.9716915  503.6996984  459.4671189  -0.0000  -1.0000  -0.0000    0.0000265   -3.1652557    0.0000085   1
    7  533.8478971  504.2777246  458.1617718  -0.0000  -1.0000  -0.0000    0.0000265   -3.1652557    0.0000085   1
    7  535.0443874  505.5423217  456.9703822  -0.0000  -1.0000  -0.0000    0.0000265   -3.1652557    0.0000085   1
    7  535.0135233  506.5779566  455.8038263  -0.0000  -1.0000  -0.0000    0.0000265   -3.1652557    0.0000085   1
    7  534.2589108  507.4415810  454.4177072  -0.0000  -1.0000  -0.0000    0.0000265   -3.1652557    0.0000085   1
    7  533.7585125  508.5069631  452.5652877  -0.0000  -1.0000  -0.0000    0.0000265   -3.1652557    0.0000085   1
    7  533.1543547  509.8132207  450.5854138  -0.0000  -1.0000  -0.0000    0.0000265   -3.1652557    0.0000085   1
    7  532.0478609  511.2973532  449.5436892  -0.0000  -1.0000  -0.0000    0.0000265   -3.1652557    0.0000085   1
    7  531.7838859  512.7725507  448.8108966  -0.0000  -1.0000  -0.0000    0.0000265   -3.1652557    0.0000085   1
    7  533.1578440  514.0901179  447.4774581  -0.0000  -1.0000  -0.0000    0.0000265   -3.1652557    0.0000085   1
    7  535.2329918  514.7221762  446.2178522  -0.0000  -1.0000  -0.0000    0.0000265   -3.1652557    0.0000085   1
    7  537.1545722  514.1790728  445.5431518  -0.0000  -1.0000  -0.0000    0.0000265   -3.1652557    0.0000085   1
    7  539.0387265  513.5833576  445.5805374  -0.0000  -1.0000  -0.0000    0.0000265   -3.1652557    0.0000085   1
    7  541.0367964  513.7939818  446.4371694  -0.0000  -1.0000  -0.0000    0.0000265   -3.1652557    0.0000085   1
    7  542.5669077  514.2252764  447.9195924  -0.0000  -1.0000  -0.0000    0.0000265   -3.1652557    0.0000085   1
    7  543.6234685  514.1579595  449.6546598  -0.0000  -1.0000  -0.0000    0.0000265   -3.1652557    0.0000085   1
    7  544.7670302  513.1813277  451.1677958  -0.0000  -1.0000  -0.0000    0.0000265   -3.1652557    0.0000085   1
    7  546.1133733  511.4565972  452.4964434  -0.0000  -1.0000  -0.0000    0.0000265   -3.1652557    0.0000085   1
    7  547.0934958  509.6307025  454.1177527  -0.0000  -1.0000  -0.0000    0.0000265   -3.1652557    0.0000085   1
    7  547.4228409  508.1654867  455.9763134  -0.0000  -1.0000  -0.0000    0.0000265   -3.1652557    0.0000085   1
    7  547.3978582  506.9079584  457.7167599  -0.0000  -1.0000  -0.0000    0.0000265   -3.1652557    0.0000085   1
    7  546.9071328  505.7287977  459.3466220  -0.0000  -1.0000  -0.0000    0.0000265   -3.1652557    0.0000085   1
    7  545.6839235  505.0933246  460.8574020  -0.0000  -1.0000  -0.0000    0.0000265   -3.1652557    0.0000085   1
    7  543.9648023  504.9379599  461.7091877  -0.0000  -1.0000  -0.0000    0.0000265   -3.1652557    0.0000085   1
    7  541.8415487  504.6879823  461.5210161  -0.0000  -1.0000  -0.0000    0.0000265   -3.1652557    0.0000085   1
    7  539.4412036  504.6050037  460.8646537  -0.0000  -1.0000  -0.0000    0.0000265   -3.1652557    0.0000085   1
    7  537.3425020  504.9559609  460.4018867  -0.0000  -1.0000  -0.0000    0.0000265   -3.1652557    0.0000085   1
    7  535.4812323  505.1600768  460.2192347  -0.0000  -1.0000  -0.0000    0.0000265   -3.1652557    0.0000085   1
    7  532.7816739  504.3965530  460.1110306  -0.0000  -1.0000  -0.0000    0.0000265   -3.1652557    0.0000085   1
    8  625.1140556  408.8227778  385.7891111   0.0000   0.0000  -1.0000    0.0000181   -0.0000383   -3.1652515   0
    8  625.0138135  411.0121257  386.2570980   0.0000   0.0000  -1.0000    0.0000181   -0.0000383   -3.1652515   0
    8  624.4691449  412.1578290  388.2044933   0.0000   0.0000  -1.0000    0.0000181   -0.0000383   -3.1652515   0
    8  624.7089800  413.4131973  390.9205101   0.0000   0.0000  -1.0000    0.0000181   -0.0000383   -3.1652515   0
    8  625.9838136  415.1482802  392.7130146   0.0000   0.0000  -1.0000    0.0000181   -0.0000383   -3.1652515   0
    8  626.7863939  416.7804066  393.5836209   0.0000   0.0000  -1.0000    0.0000181   -0.0000383   -3.1652515   0
    8  627.1045095  418.4112964  394.5626742   0.0000   0.0000  -1.0000    0.0000181   -0.0000383   -3.1652515   0
    8  628.1813736  420.1610103  395.5962746   0.0000   0.0000  -1.0000    0.0000181   -0.0000383   -3.1652515   0
    8  629.8102141  422.0433357  396.1329750   0.0000   0.0000  -1.0000    0.0000181   -0.0000383   -3.1652515   0
    8  631.1188224  423.3039819  396.4485942   0.0000   0.0000  -1.0000    0.0000181   -0.0000383   -3.1652515   0
    8  632.3646667  423.2877500  396.9861111   0.0000   0.0000  -1.0000    0.0000181   -0.0000383   -3.1652515   0
    9  625.1140556  408.8227778  385.7891111  -0.5000   0.5000   0.5000   -1.5826502    1.5826523    1.5826105   0
    9  627.1975097  408.2398788  385.8645724  -0.5000   0.5000   0.5000   -1.5826502    1.5826523    1.5826105   0
    9  629.4442157  407.4810299  385.5984148  -0.5000   0.5000   0.5000   -1.5826502    1.5826523    1.5826105   0
    9  631.4609321  406.0706110  384.4593307  -0.5000   0.5000   0.5000   -1.5826502    1.5826523    1.5826105   0
    9  632.9764482  404.4749891  382.9605152  -0.5000   0.5000   0.5000   -1.5826502    1.5826523    1.5826105   0
    9  634.0389771  403.0905161  382.3239797  -0.5000   0.5000   0.5000   -1.5826502    1.5826523    1.5826105   0
    9  634.9444444  401.6951112  382.9396666  -0.5000   0.5000   0.5000   -1.5826502    1.5826523    1.5826105   0
   10  668.1287248  176.8444922   72.4247538   1.0000  -0.0000  -0.0000    3.1652558   -0.0000107    0.0000220   1
   10  668.5961208  175.5427870   73.6888555   1.0000  -0.0000  -0.0000    3.1652558   -0.0000107    0.0000220   1
   10  668.2652971  173.8303514   74.9034145   1.0000  -0.0000  -0.0000    3.1652558   -0.0000107    0.0000220   1
   10  667.0940250  172.3414402   75.0877424   1.0000  -0.0000  -0.0000    3.1652558   -0.0000107    0.0000220   1
   10  665.4686850  170.5849711   74.4426294   1.0000  -0.0000  -0.0000    3.1652558   -0.0000107    0.0000220   1
   10  663.9561041  168.2190207   74.1509281   1.0000  -0.0000  -0.0000    3.1652558   -0.0000107    0.0000220   1
   10  662.8787482  166.0361283   74.6256287   1.0000  -0.0000  -0.0000    3.1652558   -0.0000107    0.0000220   1
   10  662.5624932  164.3671078   74.7172646   1.0000  -0.0000  -0.0000    3.1652558   -0.0000107    0.0000220   1
   10  662.9257414  163.0899322   73.6148935   1.0000  -0.0000  -0.0000    3.1652558   -0.0000107    0.0000220   1
   10  662.4644877  162.1534096   71.7003330   1.0000  -0.0000  -0.0000    3.1652558   -0.0000107    0.0000220   1
   10  661.2994726  161.3128898   69.6112711   1.0000  -0.0000  -0.0000    3.1652558   -0.0000107    0.0000220   1
   10  660.7327495  160.8242478   67.5010624   1.0000  -0.0000  -0.0000    3.1652558   -0.0000107    0.0000220   1
   10  660.6861545  160.7500368   65.5293344   1.0000  -0.0000  -0.0000    3.1652558   -0.0000107    0.0000220   1
   10  660.8107873  160.6485648   63.7744298   1.0000  -0.0000  -0.0000    3.1652558   -0.0000107    0.0000220   1
   10  661.1447892  160.3716245   62.0484317   1.0000  -0.0000  -0.0000    3.1652558   -0.0000107    0.0000220   1
   10  661.6669328  160.0511345   60.1682433   1.0000  -0.0000  -0.0000    3.1652558   -0.0000107    0.0000220   1
   10  661.9142944  159.8838191   58.0397934   1.0000  -0.0000  -0.0000    3.1652558   -0.0000107    0.0000220   1
   10  661.7556797  160.1162123   55.7136288   1.0000  -0.0000  -0.0000    3.1652558   -0.0000107    0.0000220   1
   10  661.8929191  161.2032149   53.6271845   1.0000  -0.0000  -0.0000    3.1652558   -0.0000107    0.0000220   1
   10  663.1669211  162.8626875   52.6346916   1.0000  -0.0000  -0.0000    3.1652558   -0.0000107    0.0000220   1
   10  664.8209150  164.4691821   52.9675372   1.0000  -0.0000  -0.0000    3.1652558   -0.0000107    0.0000220   1
   10  665.7853306  166.1035905   53.4404144   1.0000  -0.0000  -0.0000    3.1652558   -0.0000107    0.0000220   1
   10  666.7498662  167.6379077   53.1952557   1.0000  -0.0000  -0.0000    3.1652558   -0.0000107    0.0000220   1
   10  668.0995547  169.0434763   52.9579162   1.0000  -0.0000  -0.0000    3.1652558   -0.0000107    0.0000220   1
   10  668.7076317  170.4488452   53.5016301   1.0000  -0.0000  -0.0000    3.1652558   -0.0000107    0.0000220   1
   10  668.1638562  171.4098247   55.0525948   1.0000  -0.0000  -0.0000    3.1652558   -0.0000107    0.0000220   1
   10  667.7601586  172.2662888   57.0810654   1.0000  -0.0000  -0.0000    3.1652558   -0.0000107    0.0000220   1
   10  668.3691662  173.0961761   58.8435899   1.0000  -0.0000  -0.0000    3.1652558   -0.0000107    0.0000220   1
   10  669.5226298  173.2471206   60.4598965   1.0000  -0.0000  -0.0000    3.1652558   -0.0000107    0.0000220   1
   10  670.0793478  173.1706019   62.0072508   1.0000  -0.0000  -0.0000    3.1652558   -0.0000107    0.0000220   1
   10  669.7032629  173.5169469   63.7219877   1.0000  -0.0000  -0.0000    3.1652558   -0.0000107    0.0000220   1
   10  669.7341163  174.5947432   65.7251868   1.0000  -0.0000  -0.0000    3.1652558   -0.0000107    0.0000220   1
   10  670.2776540  175.8583375   67.5820149   1.0000  -0.0000  -0.0000    3.1652558   -0.0000107    0.0000220   1
   10  669.8953630  176.6514130   69.0853121   1.0000  -0.0000  -0.0000    3.1652558   -0.0000107    0.0000220   1
   10  668.9354401  177.0251286   70.3065047   1.0000  -0.0000  -0.0000    3.1652558   -0.0000107    0.0000220   1
   10  668.1287247  176.8444922   72.4247539   1.0000  -0.0000  -0.0000    3.1652558   -0.0000107    0.0000220   1
   11  192.4673784  268.6050941  511.4577110   1.0000  -0.0000  -0.0000    3.1652558   -0.0000107    0.0000220   1
   11  192.5295680  268.9476014  509.2257145   1.0000  -0.0000  -0.0000    3.1652558   -0.0000107    0.0000220   1
   11  192.7962951  269.0908245  506.8850943   1.0000  -0.0000  -0.0000    3.1652558   -0.0000107    0.0000220   1
   11  192.9491887  268.5468105  505.0125285   1.0000  -0.0000  -0.0000    3.1652558   -0.0000107    0.0000220   1
   11  192.7772333  267.7471557  502.9878578   1.0000  -0.0000  -0.0000    3.1652558   -0.0000107    0.0000220   1
   11  192.2547423  267.2085504  500.7043592   1.0000  -0.0000  -0.0000    3.1652558   -0.0000107    0.0000220   1
   11  192.3552627  267.4599085  498.8701070   1.0000  -0.0000  -0.0000    3.1652558   -0.0000107    0.0000220   1
   11  192.6715660  268.7826815  497.4811640   1.0000  -0.0000  -0.0000    3.1652558   -0.0000107    0.0000220   1
   11  191.6433212  270.3496479  496.3733860   1.0000  -0.0000  -0.0000    3.1652558   -0.0000107    0.0000220   1
   11  190.3077701  272.0192624  495.9644259   1.0000  -0.0000  -0.0000    3.1652558   -0.0000107    0.0000220   1
   11  189.7720531  273.9570670  496.1653946   1.0000  -0.0000  -0.0000    3.1652558   -0.0000107    0.0000220   1
   11  189.0720304  275.9074430  496.7204950   1.0000  -0.0000  -0.0000    3.1652558   -0.0000107    0.0000220   1
   11  187.8571819  277.6477740  497.9445854   1.0000  -0.0000  -0.0000    3.1652558   -0.0000107    0.0000220   1
   11  187.0510906  279.0142272  499.6173222   1.0000  -0.0000  -0.0000    3.1652558   -0.0000107    0.0000220   1
   11  186.7510161  279.7889956  501.3778465   1.0000  -0.0000  -0.0000    3.1652558   -0.0000107    0.0000220   1
   11  186.6649882  279.9490356  503.3559523   1.0000  -0.0000  -0.0000    3.1652558   -0.0000107    0.0000220   1
   11  186.8327199  279.8963572  505.3145414   1.0000  -0.0000  -0.0000    3.1652558   -0.0000107    0.0000220   1
   11  186.8450336  279.9232193  507.2088201   1.0000  -0.0000  -0.0000    3.1652558   -0.0000107    0.0000220   1
   11  186.6899261  279.6845649  509.1231857   1.0000  -0.0000  -0.0000    3.1652558   -0.0000107    0.0000220   1
   11  186.8340918  278.6455032  510.8666625   1.0000  -0.0000  -0.0000    3.1652558   -0.0000107    0.0000220   1
   11  187.4889247  277.1599288  512.4131098   1.0000  -0.0000  -0.0000    3.1652558   -0.0000107    0.0000220   1
   11  188.7234742  275.7563024  513.3663302   1.0000  -0.0000  -0.0000    3.1652558   -0.0000107    0.0000220   1
   11  190.1829798  274.6895267  513.1793639   1.0000  -0.0000  -0.0000    3.1652558   -0.0000107    0.0000220   1
   11  190.9467719  274.1734964  511.9907161   1.0000  -0.0000  -0.0000    3.1652558   -0.0000107    0.0000220   1
   11  190.7997671  273.4594996  510.6791876   1.0000  -0.0000  -0.0000    3.1652558   -0.0000107    0.0000220   1
   11  190.7320529  271.8587890  510.3388659   1.0000  -0.0000  -0.0000    3.1652558   -0.0000107    0.0000220   1
   11  191.2265536  270.1629498  511.0452602   1.0000  -0.0000  -0.0000    3.1652558   -0.0000107    0.0000220   1
   11  191.8115056  269.2205809  511.7607005   1.0000  -0.0000  -0.0000    3.1652558   -0.0000107    0.0000220   1
   11  192.4673784  268.6050941  511.4577108   1.0000  -0.0000  -0.0000    3.1652558   -0.0000107    0.0000220   1
   12  315.3804603  166.6575449  203.1659594  -0.0000   1.0000  -0.0000   -0.0000265    3.1652557   -0.0000085   1
   12  315.9042207  167.6991517  202.8494918  -0.0000   1.0000  -0.0000   -0.0000265    3.1652557   -0.0000085   1
   12  317.5304335  168.4620657  202.7424625  -0.0000   1.0000  -0.0000   -0.0000265    3.1652557   -0.0000085   1
   12  319.3676044  169.2523320  202.4279723  -0.0000   1.0000  -0.0000   -0.0000265    3.1652557   -0.0000085   1
   12  320.8529895  169.5195846  201.2148136  -0.0000   1.0000  -0.0000   -0.0000265    3.1652557   -0.0000085   1
   12  322.3658965  169.0703833  199.4786321  -0.0000   1.0000  -0.0000   -0.0000265    3.1652557   -0.0000085   1
   12  323.6977170  168.8347033  197.6806035  -0.0000   1.0000  -0.0000   -0.0000265    3.1652557   -0.0000085   1
   12  323.7973577  168.4409068  195.6009134  -0.0000   1.0000  -0.0000   -0.0000265    3.1652557   -0.0000085   1
   12  323.0551615  168.0310347  193.5518754  -0.0000   1.0000  -0.0000   -0.0000265    3.1652557   -0.0000085   1
   12  322.0033863  168.0759545  192.3405672  -0.0000   1.0000  -0.0000   -0.0000265    3.1652557   -0.0000085   1
   12  320.3017547  167.7257161  192.4339112  -0.0000   1.0000  -0.0000   -0.0000265    3.1652557   -0.0000085   1
   12  318.2713251  166.8571672  193.1769407  -0.0000   1.0000  -0.0000   -0.0000265    3.1652557   -0.0000085   1
   12  316.1767220  166.1983300  193.2599203  -0.0000   1.0000  -0.0000   -0.0000265    3.1652557   -0.0000085   1
   12  314.1043745  165.9444540  192.6901275  -0.0000   1.0000  -0.0000   -0.0000265    3.1652557   -0.0000085   1
   12  312.0441561  166.1165714  192.7792103  -0.0000   1.0000  -0.0000   -0.0000265    3.1652557   -0.0000085   1
   12  310.3544687  166.6362684  194.0655328  -0.0000   1.0000  -0.0000   -0.0000265    3.1652557   -0.0000085   1
   12  309.7252826  166.9481513  195.8425091  -0.0000   1.0000  -0.0000   -0.0000265    3.1652557   -0.0000085   1
   12  310.1378655  166.9745950  197.5046069  -0.0000   1.0000  -0.0000   -0.0000265    3.1652557   -0.0000085   1
   12  311.5583421  166.9262983  199.2584816  -0.0000   1.0000  -0.0000   -0.0000265    3.1652557   -0.0000085   1
   12  313.2116386  166.7527298  200.9205106  -0.0000   1.0000  -0.0000   -0.0000265    3.1652557   -0.0000085   1
   12  314.2792738  166.4829357  202.0541433  -0.0000   1.0000  -0.0000   -0.0000265    3.1652557   -0.0000085   1
   12  315.3804602  166.6575449  203.1659593  -0.0000   1.0000  -0.0000   -0.0000265    3.1652557   -0.0000085   1
   13  125.3629537   92.1710768   42.9243758  -0.5000  -0.5000   0.5000   -1.5826237   -1.5826033    1.5826190   0
   13  126.8602255   92.7810466   41.2387662  -0.5000  -0.5000   0.5000   -1.5826237   -1.5826033    1.5826190   0