ITEM: TIMESTEP
0
ITEM: NUMBER OF ATOMS
7978
ITEM: BOX BOUNDS pp pp pp 
0.0 695.778747
0.0 696.969703
0.0 698.060199
ITEM: ATOMS id x y z tbx tby tbz sbx sby sbz loop
    0  122.3597858  548.4375001  493.2562857   0.5000   0.5000  -0.5000    1.5824858    1.5844338   -1.5811259   0
    0  121.7235583  547.8695285  491.3070849   0.5000   0.5000  -0.5000    1.5824858    1.5844338   -1.5811259   0
    0  120.6884537  547.2938116  489.4103706   0.5000   0.5000  -0.5000    1.5824858    1.5844338   -1.5811259   0
    0  119.7055621  546.6733298  486.9826162   0.5000   0.5000  -0.5000    1.5824858    1.5844338   -1.5811259   0
    0  119.3562365  545.7440524  484.6228198   0.5000   0.5000  -0.5000    1.5824858    1.5844338   -1.5811259   0
    0  119.6660686  544.6210897  482.5373902   0.5000   0.5000  -0.5000    1.5824858    1.5844338   -1.5811259   0
    0  119.9503896  543.1101680  480.8611105   0.5000   0.5000  -0.5000    1.5824858    1.5844338   -1.5811259   0
    0  119.8624136  541.1528072  480.2061385   0.5000   0.5000  -0.5000    1.5824858    1.5844338   -1.5811259   0
    0  119.9189154  539.1695834  479.9579250   0.5000   0.5000  -0.5000    1.5824858    1.5844338   -1.5811259   0
    0  120.6477269  537.1089487  479.2294653   0.5000   0.5000  -0.5000    1.5824858    1.5844338   -1.5811259   0
    0  121.3250957  535.7634515  478.9849426   0.5000   0.5000  -0.5000    1.5824858    1.5844338   -1.5811259   0
    0  121.8204723  536.1721519  479.9608031   0.5000   0.5000  -0.5000    1.5824858    1.5844338   -1.5811259   0
    0  123.3604345  537.2392220  480.7529355   0.5000   0.5000  -0.5000    1.5824858    1.5844338   -1.5811259   0
    0  125.8635305  537.5727270  481.5259247   0.5000   0.5000  -0.5000    1.5824858    1.5844338   -1.5811259   0
    0  127.5543961  537.5862200  483.4075075   0.5000   0.5000  -0.5000    1.5824858    1.5844338   -1.5811259   0
    0  127.8824212  538.0479839  485.9113507   0.5000   0.5000  -0.5000    1.5824858    1.5844338   -1.5811259   0
    0  128.1590063  539.0169814  487.9900232   0.5000   0.5000  -0.5000    1.5824858    1.5844338   -1.5811259   0
    0  128.6577521  540.4526257  488.7123642   0.5000   0.5000  -0.5000    1.5824858    1.5844338   -1.5811259   0
    0  128.4078129  542.4899610  488.8550226   0.5000   0.5000  -0.5000    1.5824858    1.5844338   -1.5811259   0
    0  127.6186778  544.7872909  489.8805723   0.5000   0.5000  -0.5000    1.5824858    1.5844338   -1.5811259   0
    0  127.2289809  546.1367613  491.6997893   0.5000   0.5000  -0.5000    1.5824858    1.5844338   -1.5811259   0
    0  127.2742500  546.5634968  493.2107179   0.5000   0.5000  -0.5000    1.5824858    1.5844338   -1.5811259   0
    0  127.4323572  547.3328570  493.6154286   0.5000   0.5000  -0.5000    1.5824858    1.5844338   -1.5811259   0
    1   34.7138572  159.2665714  170.0059285   0.5000   0.5000   0.5000    1.5790469    1.5806430    1.5834723   0
    1   32.4878349  156.7653464  171.5457354   0.5000   0.5000   0.5000    1.5790469    1.5806430    1.5834723   0
    1   29.9438505  156.5389704  172.1867943   0.5000   0.5000   0.5000    1.5790469    1.5806430    1.5834723   0
    1   28.1479413  157.9772884  172.4842434   0.5000   0.5000   0.5000    1.5790469    1.5806430    1.5834723   0
    1   27.7336233  160.1596901  171.9968913   0.5000   0.5000   0.5000    1.5790469    1.5806430    1.5834723   0
    1   27.7985244  161.9183517  170.2496543   0.5000   0.5000   0.5000    1.5790469    1.5806430    1.5834723   0
    1   28.2615457  162.8084963  168.2681781   0.5000   0.5000   0.5000    1.5790469    1.5806430    1.5834723   0
    1   29.7220273  162.9253380  167.2216226   0.5000   0.5000   0.5000    1.5790469    1.5806430    1.5834723   0
    1   31.9460224  162.4892433  167.2596347   0.5000   0.5000   0.5000    1.5790469    1.5806430    1.5834723   0
    1   33.9033715  161.3415794  167.9929780   0.5000   0.5000   0.5000    1.5790469    1.5806430    1.5834723   0
    1   34.7138572  159.2665714  170.0059285   0.5000   0.5000   0.5000    1.5790469    1.5806430    1.5834723   0
    2  466.5345719  468.2903438  519.8094385  -0.5000  -0.5000  -0.5000   -1.5790469   -1.5806430   -1.5834723   0
    2  469.0797444  469.9292818  518.0593486  -0.5000  -0.5000  -0.5000   -1.5790469   -1.5806430   -1.5834723   0
    2  470.3624094  471.0963084  517.4754947  -0.5000  -0.5000  -0.5000   -1.5790469   -1.5806430   -1.5834723   0
    2  470.2855265  472.0418494  515.9474048  -0.5000  -0.5000  -0.5000   -1.5790469   -1.5806430   -1.5834723   0
    2  469.5543648  473.0896308  513.7881030  -0.5000  -0.5000  -0.5000   -1.5790469   -1.5806430   -1.5834723   0
    2  468.4663718  474.1558131  513.4765482  -0.5000  -0.5000  -0.5000   -1.5790469   -1.5806430   -1.5834723   0
    2  466.6729186  474.6445299  514.5482511  -0.5000  -0.5000  -0.5000   -1.5790469   -1.5806430   -1.5834723   0
    2  464.0963369  474.9556632  515.2413794  -0.5000  -0.5000  -0.5000   -1.5790469   -1.5806430   -1.5834723   0
    2  461.8679205  475.1877434  515.9115104  -0.5000  -0.5000  -0.5000   -1.5790469   -1.5806430   -1.5834723   0
    2  460.8916479  474.4646790  517.2719387  -0.5000  -0.5000  -0.5000   -1.5790469   -1.5806430   -1.5834723   0
    2  460.7368423  473.0635879  518.8631295  -0.5000  -0.5000  -0.5000   -1.5790469   -1.5806430   -1.5834723   0
    2  461.2534419  471.7268596  520.4480253  -0.5000  -0.5000  -0.5000   -1.5790469   -1.5806430   -1.5834723   0
    2  462.0076156  470.6489446  521.5187355  -0.5000  -0.5000  -0.5000   -1.5790469   -1.5806430   -1.5834723   0
    2  463.2929356  469.5941532  521.2794936  -0.5000  -0.5000  -0.5000   -1.5790469   -1.5806430   -1.5834723   0
    2  466.5345719  468.2903438  519.8094385  -0.5000  -0.5000  -0.5000   -1.5790469   -1.5806430   -1.5834723   0
    3  357.8132144  618.8499285  144.8699999  -0.5000   0.5000   0.5000   -1.5855808    1.5802223    1.5842785   0
    3  357.6675163  621.1430602  144.3607790  -0.5000   0.5000   0.5000   -1.5855808    1.5802223    1.5842785   0
    3  356.2566425  623.0826405  143.4137143  -0.5000   0.5000   0.5000   -1.5855808    1.5802223    1.5842785   0
    3  354.4990390  624.7035149  142.6047590  -0.5000   0.5000   0.5000   -1.5855808    1.5802223    1.5842785   0
    3  354.0193611  625.4543043  142.0972783  -0.5000   0.5000   0.5000   -1.5855808    1.5802223    1.5842785   0
    3  355.5443766  626.1333723  141.7262911  -0.5000   0.5000   0.5000   -1.5855808    1.5802223    1.5842785   0
    3  357.6103931  627.3693350  141.0940995  -0.5000   0.5000   0.5000   -1.5855808    1.5802223    1.5842785   0
    3  359.7411391  628.1199869  140.4401221  -0.5000   0.5000   0.5000   -1.5855808    1.5802223    1.5842785   0
    3  362.0762921  628.6494296  140.5749673  -0.5000   0.5000   0.5000   -1.5855808    1.5802223    1.5842785   0
    3  364.2492553  629.6662690  141.0489993  -0.5000   0.5000   0.5000   -1.5855808    1.5802223    1.5842785   0
    3  367.3085106  630.2183692  141.0700293  -0.5000   0.5000   0.5000   -1.5855808    1.5802223    1.5842785   0
    3  370.5806061  630.1083181  141.4213071  -0.5000   0.5000   0.5000   -1.5855808    1.5802223    1.5842785   0
    3  372.4108254  629.8582640  142.8274175  -0.5000   0.5000   0.5000   -1.5855808    1.5802223    1.5842785   0
    3  373.3838331  629.0790323  144.4689867  -0.5000   0.5000   0.5000   -1.5855808    1.5802223    1.5842785   0
    3  374.3914461  627.5785377  145.6364231  -0.5000   0.5000   0.5000   -1.5855808    1.5802223    1.5842785   0
    3  375.8807824  625.9166023  146.2223847  -0.5000   0.5000   0.5000   -1.5855808    1.5802223    1.5842785   0
    3  376.7393902  624.5171169  146.4704867  -0.5000   0.5000   0.5000   -1.5855808    1.5802223    1.5842785   0
    3  375.6516090  623.4400451  146.9706853  -0.5000   0.5000   0.5000   -1.5855808    1.5802223    1.5842785   0
    3  373.8593370  622.4473280  147.9810459  -0.5000   0.5000   0.5000   -1.5855808    1.5802223    1.5842785   0
    3  371.5454001  621.2544673  148.9637566  -0.5000   0.5000   0.5000   -1.5855808    1.5802223    1.5842785   0
    3  368.5640734  620.4006073  148.9454217  -0.5000   0.5000   0.5000   -1.5855808    1.5802223    1.5842785   0
    3  366.4083602  620.2411820  148.2858099  -0.5000   0.5000   0.5000   -1.5855808    1.5802223    1.5842785   0
    3  364.7011020  620.2652614  147.9878316  -0.5000   0.5000   0.5000   -1.5855808    1.5802223    1.5842785   0
    3  362.5559456  620.1973646  147.5009121  -0.5000   0.5000   0.5000   -1.5855808    1.5802223    1.5842785   0
    3  360.7361566  620.1481862  146.4224504  -0.5000   0.5000   0.5000   -1.5855808    1.5802223    1.5842785   0
    3  359.6182831  619.7092241  145.8251375  -0.5000   0.5000   0.5000   -1.5855808    1.5802223    1.5842785   0
    3  358.5028572  618.4377142  146.6555714  -0.5000   0.5000   0.5000   -1.5855808    1.5802223    1.5842785   0
    4   48.3483095  137.2159701   14.2315208  -0.5000   0.5000  -0.5000   -1.5821419    1.5840132   -1.5803198   1
    4   48.1606892  136.3228687   12.3748807  -0.5000   0.5000  -0.5000   -1.5821419    1.5840132   -1.5803198   1
    4   48.1372790  136.0496659   10.0731826  -0.5000   0.5000  -0.5000   -1.5821419    1.5840132   -1.5803198   1
    4   48.3350927  135.6886182    7.7191328  -0.5000   0.5000  -0.5000   -1.5821419    1.5840132   -1.5803198   1
    4   48.9794559  134.8099548    6.0051772  -0.5000   0.5000  -0.5000   -1.5821419    1.5840132   -1.5803198   1
    4   50.2002886  134.4665763    4.3998318  -0.5000   0.5000  -0.5000   -1.5821419    1.5840132   -1.5803198   1
    4   51.6185657  134.3747223    2.1281892  -0.5000   0.5000  -0.5000   -1.5821419    1.5840132   -1.5803198   1
    4   53.4825560  134.9474800    0.3194240  -0.5000   0.5000  -0.5000   -1.5821419    1.5840132   -1.5803198   1
    4   55.8102849  136.2730730   -0.4465332  -0.5000   0.5000  -0.5000   -1.5821419    1.5840132   -1.5803198   1
    4   56.9877362  136.9387947   -0.4335248  -0.5000   0.5000  -0.5000   -1.5821419    1.5840132   -1.5803198   1
    4   55.8219494  137.4224396    0.0422983  -0.5000   0.5000  -0.5000   -1.5821419    1.5840132   -1.5803198   1
    4   54.4588828  138.7464813    0.9165505  -0.5000   0.5000  -0.5000   -1.5821419    1.5840132   -1.5803198   1
    4   54.0479903  140.1541005    2.4561438  -0.5000   0.5000  -0.5000   -1.5821419    1.5840132   -1.5803198   1
    4   53.3220889  140.6269200    4.3366668  -0.5000   0.5000  -0.5000   -1.5821419    1.5840132   -1.5803198   1
    4   52.2917987  140.0508014    5.9717281  -0.5000   0.5000  -0.5000   -1.5821419    1.5840132   -1.5803198   1
    4   51.5788825  139.8596720    7.3725217  -0.5000   0.5000  -0.5000   -1.5821419    1.5840132   -1.5803198   1
    4   50.8958489  140.2722301    9.1913368  -0.5000   0.5000  -0.5000   -1.5821419    1.5840132   -1.5803198   1
    4   49.7597046  139.7090764   11.0303911  -0.5000   0.5000  -0.5000   -1.5821419    1.5840132   -1.5803198   1
    4   48.8995224  138.6749774   12.6036217  -0.5000   0.5000  -0.5000   -1.5821419    1.5840132   -1.5803198   1
    4   48.3483095  137.2159701   14.2315209  -0.5000   0.5000  -0.5000   -1.5821419    1.5840132   -1.5803198   1
    5   34.4410655  363.4759881  292.9217857  -0.5000  -0.5000   0.5000   -1.5824858   -1.5844338    1.5811259   0
    5   30.2342725  360.8786708  290.2579139  -0.5000  -0.5000   0.5000   -1.5824858   -1.5844338    1.5811259   0
    5   28.4300129  361.0139648  289.0993529  -0.5000  -0.5000   0.5000   -1.5824858   -1.5844338    1.5811259   0
    5   28.1680610  361.7604074  287.8529155  -0.5000  -0.5000   0.5000   -1.5824858   -1.5844338    1.5811259   0
    5   28.4272102  361.8201415  285.8511623  -0.5000  -0.5000   0.5000   -1.5824858   -1.5844338    1.5811259   0
    5   28.5344392  361.0297365  284.2075625  -0.5000  -0.5000   0.5000   -1.5824858   -1.5844338    1.5811259   0
    5   27.9316669  358.9401539  283.2022227  -0.5000  -0.5000   0.5000   -1.5824858   -1.5844338    1.5811259   0
    5   26.8476282  356.8349678  281.7984418  -0.5000  -0.5000   0.5000   -1.5824858   -1.5844338    1.5811259   0
    5   26.3301833  355.3195261  280.1747635  -0.5000  -0.5000   0.5000   -1.5824858   -1.5844338    1.5811259   0
    5   27.2584565  353.9370306  279.1741757  -0.5000  -0.5000   0.5000   -1.5824858   -1.5844338    1.5811259   0
    5   29.2922389  353.1122077  278.6906439  -0.5000  -0.5000   0.5000   -1.5824858   -1.5844338    1.5811259   0
    5   31.0958211  352.4175966  278.1626686  -0.5000  -0.5000   0.5000   -1.5824858   -1.5844338    1.5811259   0
    5   32.7638979  351.2759118  277.6169387  -0.5000  -0.5000   0.5000   -1.5824858   -1.5844338    1.5811259   0
    5   34.6340954  349.6702832  277.5042679  -0.5000  -0.5000   0.5000   -1.5824858   -1.5844338    1.5811259   0
    5   35.6834940  347.5574948  277.2169340  -0.5000  -0.5000   0.5000   -1.5824858   -1.5844338    1.5811259   0
    5   36.4495766  345.8322657  276.3488476  -0.5000  -0.5000   0.5000   -1.5824858   -1.5844338    1.5811259   0
    5   37.4769021  344.5410249  275.3050585  -0.5000  -0.5000   0.5000   -1.5824858   -1.5844338    1.5811259   0
    5   38.4928853  343.4469756  274.9403692  -0.5000  -0.5000   0.5000   -1.5824858   -1.5844338    1.5811259   0
    5   40.0333436  343.1623804  275.3979802  -0.5000  -0.5000   0.5000   -1.5824858   -1.5844338    1.5811259   0
    5   41.9501849  342.9504237  276.0060402  -0.5000  -0.5000   0.5000   -1.5824858   -1.5844338    1.5811259   0
    5   43.4452224  341.8946951  277.1810043  -0.5000  -0.5000   0.5000   -1.5824858   -1.5844338    1.5811259   0
    5   44.2168935  341.0152305  279.2438441  -0.5000  -0.5000   0.5000   -1.5824858   -1.5844338    1.5811259   0
    5   44.3063133  341.1580201  280.6744331  -0.5000  -0.5000   0.5000   -1.5824858   -1.5844338    1.5811259   0
    5   44.8085988  341.3092127  279.7560764  -0.5000  -0.5000   0.5000   -1.5824858   -1.5844338    1.5811259   0
    5   46.2265762  340.6248282  277.5283057  -0.5000  -0.5000   0.5000   -1.5824858   -1.5844338    1.5811259   0
    5   47.5882020  339.1994195  275.9640560  -0.5000  -0.5000   0.5000   -1.5824858   -1.5844338    1.5811259   0
    5   48.7120780  337.6296016  275.1057863  -0.5000  -0.5000   0.5000   -1.5824858   -1.5844338    1.5811259   0
    5   50.0755155  336.8792077  274.5890382  -0.5000  -0.5000   0.5000   -1.5824858   -1.5844338    1.5811259   0
    5   52.5346280  337.0748076  274.7163011  -0.5000  -0.5000   0.5000   -1.5824858   -1.5844338    1.5811259   0
    5   55.7677619  337.2296230  275.3351084  -0.5000  -0.5000   0.5000   -1.5824858   -1.5844338    1.5811259   0
    5   58.3370717  337.2392377  275.6643412  -0.5000  -0.5000   0.5000   -1.5824858   -1.5844338    1.5811259   0
    5   60.0549490  337.7565425  275.5918820  -0.5000  -0.5000   0.5000   -1.5824858   -1.5844338    1.5811259   0
    5   61.1232012  338.1355656  275.6192278  -0.5000  -0.5000   0.5000   -1.5824858   -1.5844338    1.5811259   0
    5   62.1296719  337.2047685  275.3019343  -0.5000  -0.5000   0.5000   -1.5824858   -1.5844338    1.5811259   0
    5   63.5939098  335.2877118  274.4361097  -0.5000  -0.5000   0.5000   -1.5824858   -1.5844338    1.5811259   0
    5   64.8468108  333.5201013  273.4455019  -0.5000  -0.5000   0.5000   -1.5824858   -1.5844338    1.5811259   0
    5   65.5112578  332.3214008  272.5789398  -0.5000  -0.5000   0.5000   -1.5824858   -1.5844338    1.5811259   0
    5   66.4527527  332.1556213  272.6979786  -0.5000  -0.5000   0.5000   -1.5824858   -1.5844338    1.5811259   0
    5   68.2375703  333.1726248  273.5396606  -0.5000  -0.5000   0.5000   -1.5824858   -1.5844338    1.5811259   0
    5   70.3754908  333.8764820  273.5710727  -0.5000  -0.5000   0.5000   -1.5824858   -1.5844338    1.5811259   0
    5   72.4569155  333.0266933  272.8482671  -0.5000  -0.5000   0.5000   -1.5824858   -1.5844338    1.5811259   0
    5   74.3448982  331.9266481  272.9027829  -0.5000  -0.5000   0.5000   -1.5824858   -1.5844338    1.5811259   0
    5   76.6866924  331.8686764  273.7036170  -0.5000  -0.5000   0.5000   -1.5824858   -1.5844338    1.5811259   0
    5   79.4385985  331.8159923  274.4661202  -0.5000  -0.5000   0.5000   -1.5824858   -1.5844338    1.5811259   0
    5   81.3060158  330.9539443  274.8680009  -0.5000  -0.5000   0.5000   -1.5824858   -1.5844338    1.5811259   0
    5   82.4410970  329.7042342  274.2162206  -0.5000  -0.5000   0.5000   -1.5824858   -1.5844338    1.5811259   0
    5   83.5822201  328.3665703  273.1099157  -0.5000  -0.5000   0.5000   -1.5824858   -1.5844338    1.5811259   0
    5   85.3730916  327.4229544  272.6250927  -0.5000  -0.5000   0.5000   -1.5824858   -1.5844338    1.5811259   0
    5   87.9088032  327.0758291  272.8347353  -0.5000  -0.5000   0.5000   -1.5824858   -1.5844338    1.5811259   0
    5   90.3549400  326.4611539  273.2635862  -0.5000  -0.5000   0.5000   -1.5824858   -1.5844338    1.5811259   0
    5   92.4313572  325.1685881  273.1591027  -0.5000  -0.5000   0.5000   -1.5824858   -1.5844338    1.5811259   0
    5   94.0124171  324.0654155  272.3327858  -0.5000  -0.5000   0.5000   -1.5824858   -1.5844338    1.5811259   0
    5   95.2011710  323.2963735  270.9444063  -0.5000  -0.5000   0.5000   -1.5824858   -1.5844338    1.5811259   0
    5   96.6784274  322.1785532  269.6533388  -0.5000  -0.5000   0.5000   -1.5824858   -1.5844338    1.5811259   0
    5   98.6706900  321.4983146  269.4538339  -0.5000  -0.5000   0.5000   -1.5824858   -1.5844338    1.5811259   0
    5  100.9182635  321.6369619  270.1365031  -0.5000  -0.5000   0.5000   -1.5824858   -1.5844338    1.5811259   0
    5  103.3455261  321.6909992  270.6909319  -0.5000  -0.5000   0.5000   -1.5824858   -1.5844338    1.5811259   0
    5  105.3006136  321.3160381  270.4274274  -0.5000  -0.5000   0.5000   -1.5824858   -1.5844338    1.5811259   0
    5  106.4352142  320.4782144  269.4732143  -0.5000  -0.5000   0.5000   -1.5824858   -1.5844338    1.5811259   0
    6  277.8998721  619.1947366  371.7225893  -0.5000  -0.5000   0.5000   -1.5824858   -1.5844338    1.5811259   0
    6  276.7577935  617.4774138  369.6739630  -0.5000  -0.5000   0.5000   -1.5824858   -1.5844338    1.5811259   0
    6  275.8361679  617.5803692  368.0549187  -0.5000  -0.5000   0.5000   -1.5824858   -1.5844338    1.5811259   0
    6  275.3291484  618.9130145  366.9981385  -0.5000  -0.5000   0.5000   -1.5824858   -1.5844338    1.5811259   0
    6  274.5692625  620.3974957  366.3783634  -0.5000  -0.5000   0.5000   -1.5824858   -1.5844338    1.5811259   0
    6  273.0297520  621.8636613  366.0013669  -0.5000  -0.5000   0.5000   -1.5824858   -1.5844338    1.5811259   0
    6  271.2903575  623.3364477  365.1472944  -0.5000  -0.5000   0.5000   -1.5824858   -1.5844338    1.5811259   0
    6  270.4971003  623.9756283  364.1933649  -0.5000  -0.5000   0.5000   -1.5824858   -1.5844338    1.5811259   0
    6  271.1662946  623.9819891  364.2255492  -0.5000  -0.5000   0.5000   -1.5824858   -1.5844338    1.5811259   0
    6  272.6589294  624.4513092  364.6967674  -0.5000  -0.5000   0.5000   -1.5824858   -1.5844338    1.5811259   0
    6  273.9602384  624.8722795  365.4017353  -0.5000  -0.5000   0.5000   -1.5824858   -1.5844338    1.5811259   0
    6  274.7158281  624.9479699  366.9247332  -0.5000  -0.5000   0.5000   -1.5824858   -1.5844338    1.5811259   0
    6  275.3082873  624.7561935  369.0419120  -0.5000  -0.5000   0.5000   -1.5824858   -1.5844338    1.5811259   0
    6  276.2958889  624.2950217  370.8931179  -0.5000  -0.5000   0.5000   -1.5824858   -1.5844338    1.5811259   0
    6  277.4855749  623.7701601  371.9443288  -0.5000  -0.5000   0.5000   -1.5824858   -1.5844338    1.5811259   0
    6  278.0290792  622.2919751  372.1830917  -0.5000  -0.5000   0.5000   -1.5824858   -1.5844338    1.5811259   0
    6  277.8998721  619.1947366  371.7225893  -0.5000  -0.5000   0.5000   -1.5824858   -1.5844338    1.5811259   0
    7   46.6762294  641.3074798  688.0939078   0.5000   0.5000   0.5000    1.5790469    1.5806430    1.5834723   1
    7   45.3974296  642.9184981  687.3758357   0.5000   0.5000   0.5000    1.5790469    1.5806430    1.5834723   1
    7   43.9111059  644.3328162  686.9745287   0.5000   0.5000   0.5000    1.5790469    1.5806430    1.5834723   1
    7   42.1953530  645.4200839  686.4689327   0.5000   0.5000   0.5000    1.5790469    1.5806430    1.5834723   1
    7   39.9102315  646.5220883  686.2377552   0.5000   0.5000   0.5000    1.5790469    1.5806430    1.5834723   1
    7   37.4560935  647.0082279  686.8383687   0.5000   0.5000   0.5000    1.5790469    1.5806430    1.5834723   1
    7   35.6887757  647.1589135  687.3577049   0.5000   0.5000   0.5000    1.5790469    1.5806430    1.5834723   1
    7   35.0413378  647.9458242  686.2405171   0.5000   0.5000   0.5000    1.5790469    1.5806430    1.5834723   1
    7   35.5118980  648.6236936  683.9416948   0.5000   0.5000   0.5000    1.5790469    1.5806430    1.5834723   1
    7   36.7304223  649.2541283  681.5952208   0.5000   0.5000   0.5000    1.5790469    1.5806430    1.5834723   1
    7   37.5402992  650.5486195  679.3645533   0.5000   0.5000   0.5000    1.5790469    1.5806430    1.5834723   1
    7   38.4758205  651.7391138  677.8037993   0.5000   0.5000   0.5000    1.5790469    1.5806430    1.5834723   1
    7   40.5199584  652.1414652  677.0955770   0.5000   0.5000   0.5000    1.5790469    1.5806430    1.5834723   1
    7   42.6698957  651.3090687  676.8143051   0.5000   0.5000   0.5000    1.5790469    1.5806430    1.5834723   1
    7   44.7658002  649.9628001  677.0066257   0.5000   0.5000   0.5000    1.5790469    1.5806430    1.5834723   1
    7   46.9041789  648.7139298  677.3221785   0.5000   0.5000   0.5000    1.5790469    1.5806430    1.5834723   1
    7   48.1086766  646.6701164  676.7850517   0.5000   0.5000   0.5000    1.5790469    1.5806430    1.5834723   1
    7   48.2361230  645.3815903  676.2487376   0.5000   0.5000   0.5000    1.5790469    1.5806430    1.5834723   1
    7   48.1771689  645.7744159  677.7104003   0.5000   0.5000   0.5000    1.5790469    1.5806430    1.5834723   1
    7   48.1963302  645.6491554  680.3245486   0.5000   0.5000   0.5000    1.5790469    1.5806430    1.5834723   1
    7   47.7860531  644.5026945  682.1315288   0.5000   0.5000   0.5000    1.5790469    1.5806430    1.5834723   1
    7   47.0819216  643.3515947  683.2235626   0.5000   0.5000   0.5000    1.5790469    1.5806430    1.5834723   1
    7   46.7070835  642.9444383  684.8749612   0.5000   0.5000   0.5000    1.5790469    1.5806430    1.5834723   1
    7   46.9158427  642.9024173  687.0973875   0.5000   0.5000   0.5000    1.5790469    1.5806430    1.5834723   1
    7   47.1547563  642.2381472  688.2784481   0.5000   0.5000   0.5000    1.5790469    1.5806430    1.5834723   1
    7   46.6762295  641.3074798  688.0939078   0.5000   0.5000   0.5000    1.5790469    1.5806430    1.5834723   1
    8  620.0858156  503.6639697  677.3317930  -0.5000  -0.5000   0.5000   -1.5824858   -1.5844338    1.5811259   1
    8  618.1637314  503.1510669  679.2937839  -0.5000  -0.5000   0.5000   -1.5824858   -1.5844338    1.5811259   1
    8  616.9105548  503.2316223  681.4987774  -0.5000  -0.5000   0.5000   -1.5824858   -1.5844338    1.5811259   1
    8  616.7649227  503.6570691  684.2572475  -0.5000  -0.5000   0.5000   -1.5824858   -1.5844338    1.5811259   1
    8  617.9023505  503.6430493  686.7390308  -0.5000  -0.5000   0.5000   -1.5824858   -1.5844338    1.5811259   1
    8  619.7949505  502.9429108  688.0008940  -0.5000  -0.5000   0.5000   -1.5824858   -1.5844338    1.5811259   1
    8  621.8339037  501.7637565  688.1278727  -0.5000  -0.5000   0.5000   -1.5824858   -1.5844338    1.5811259   1
    8  623.4338298  500.1160968  687.4986276  -0.5000  -0.5000   0.5000   -1.5824858   -1.5844338    1.5811259   1
    8  624.3154658  498.4274985  686.3432772  -0.5000  -0.5000   0.5000   -1.5824858   -1.5844338    1.5811259   1
    8  624.9918326  497.4261878  684.5274967  -0.5000  -0.5000   0.5000   -1.5824858   -1.5844338    1.5811259   1
    8  625.2539442  497.2779208  682.1371516  -0.5000  -0.5000   0.5000   -1.5824858   -1.5844338    1.5811259   1
    8  624.9418161  496.5932134  680.2992973  -0.5000  -0.5000   0.5000   -1.5824858   -1.5844338    1.5811259   1
    8  624.9429692  494.7742399  679.1872425  -0.5000  -0.5000   0.5000   -1.5824858   -1.5844338    1.5811259   1
    8  624.7222950  493.1331734  677.9004540  -0.5000  -0.5000   0.5000   -1.5824858   -1.5844338    1.5811259   1
    8  623.3506677  491.8297112  676.8942711  -0.5000  -0.5000   0.5000   -1.5824858   -1.5844338    1.5811259   1
    8  621.6912032  490.1391452  676.6550452  -0.5000  -0.5000   0.5000   -1.5824858   -1.5844338    1.5811259   1
    8  621.0462016  489.7393508  676.3877698  -0.5000  -0.5000   0.5000   -1.5824858   -1.5844338    1.5811259   1
    8  620.7789724  491.7930427  675.8521473  -0.5000  -0.5000   0.5000   -1.5824858   -1.5844338    1.5811259   1
    8  619.6445781  493.7327474  675.2126429  -0.5000  -0.5000   0.5000   -1.5824858   -1.5844338    1.5811259   1
    8  617.9849367  494.6291882  674.4760813  -0.5000  -0.5000   0.5000   -1.5824858   -1.5844338    1.5811259   1
    8  616.3514998  496.0862628  673.9857820  -0.5000  -0.5000   0.5000   -1.5824858   -1.5844338    1.5811259   1
    8  615.2853788  498.4691538  673.9560654  -0.5000  -0.5000   0.5000   -1.5824858   -1.5844338    1.5811259   1
    8  615.0768437  500.9113647  674.4432149  -0.5000  -0.5000   0.5000   -1.5824858   -1.5844338    1.5811259   1
    8  615.0584707  502.2536794  675.9642680  -0.5000  -0.5000   0.5000   -1.5824858   -1.5844338    1.5811259   1
    8  615.3980122  502.6238166  678.1891468  -0.5000  -0.5000   0.5000   -1.5824858   -1.5844338    1.5811259   1
    8  616.9657224  503.3480187  678.8384675  -0.5000  -0.5000   0.5000   -1.5824858   -1.5844338    1.5811259   1
    8  618.8788569  503.9905906  677.8703807  -0.5000  -0.5000   0.5000   -1.5824858   -1.5844338    1.5811259   1
    8  620.0858155  503.6639698  677.3317930  -0.5000  -0.5000   0.5000   -1.5824858   -1.5844338    1.5811259   1
    9  503.3052928  622.4869701  626.9452827   0.5000   0.5000   0.5000    1.5790469    1.5806430    1.5834723   1
    9  501.3518362  622.9210912  627.5395321   0.5000   0.5000   0.5000    1.5790469    1.5806430    1.5834723   1
    9  500.2776400  622.4691866  629.7029715   0.5000   0.5000   0.5000    1.5790469    1.5806430    1.5834723   1
    9  498.9557117  621.1562378  631.7761871   0.5000   0.5000   0.5000    1.5790469    1.5806430    1.5834723   1
    9  497.4355438  619.4762747  632.2600168   0.5000   0.5000   0.5000    1.5790469    1.5806430    1.5834723   1
    9  496.9254495  619.6346881  632.4530797   0.5000   0.5000   0.5000    1.5790469    1.5806430    1.5834723   1
    9  496.2394719  621.6697994  633.3846139   0.5000   0.5000   0.5000    1.5790469    1.5806430    1.5834723   1
    9  494.8457740  623.6710999  633.6855162   0.5000   0.5000   0.5000    1.5790469    1.5806430    1.5834723   1
    9  494.3597094  625.1554078  632.9559375   0.5000   0.5000   0.5000    1.5790469    1.5806430    1.5834723   1
    9  495.0175686  626.3337581  631.7782896   0.5000   0.5000   0.5000    1.5790469    1.5806430    1.5834723   1
    9  495.5979511  627.0582120  629.9461590   0.5000   0.5000   0.5000    1.5790469    1.5806430    1.5834723   1
    9  496.5822891  627.2309999  627.9760585   0.5000   0.5000   0.5000    1.5790469    1.5806430    1.5834723   1
    9  498.6053668  627.0846641  626.9425922   0.5000   0.5000   0.5000    1.5790469    1.5806430    1.5834723   1
    9  500.2323335  626.2551840  626.4289242   0.5000   0.5000   0.5000    1.5790469    1.5806430    1.5834723   1
    9  501.3674892  624.5419155  626.5567602   0.5000   0.5000   0.5000    1.5790469    1.5806430    1.5834723   1
    9  502.6580314  623.1388166  627.0115423   0.5000   0.5000   0.5000    1.5790469    1.5806430    1.5834723   1
    9  503.3052928  622.4869702  626.9452828   0.5000   0.5000   0.5000    1.5790469    1.5806430    1.5834723   1
   10  467.5630001  634.8740714  574.1905715   0.5000   0.5000  -0.5000    1.5824858    1.5844338   -1.5811259   0
   10  469.2148489  632.7282446  572.8274400   0.5000   0.5000  -0.5000    1.5824858    1.5844338   -1.5811259   0
   10  470.5477191  631.1476971  571.2105569   0.5000   0.5000  -0.5000    1.5824858    1.5844338   -1.5811259   0
   10  471.2463377  630.6415389  568.6727656   0.5000   0.5000  -0.5000    1.5824858    1.5844338   -1.5811259   0
   10  471.2467821  630.5759473  566.0257124   0.5000   0.5000  -0.5000    1.5824858    1.5844338   -1.5811259   0
   10  470.9097255  630.1910047  564.8508590   0.5000   0.5000  -0.5000    1.5824858    1.5844338   -1.5811259   0
   10  471.3337611  628.7615886  564.5912700   0.5000   0.5000  -0.5000    1.5824858    1.5844338   -1.5811259   0
   10  472.0301068  626.4787203  564.2374193   0.5000   0.5000  -0.5000    1.5824858    1.5844338   -1.5811259   0
   10  472.7948495  624.5820853  564.2720124   0.5000   0.5000  -0.5000    1.5824858    1.5844338   -1.5811259   0
   10  474.4106971  623.5086475  565.0813695   0.5000   0.5000  -0.5000    1.5824858    1.5844338   -1.5811259   0
   10  476.5332174  622.4316306  565.4510782   0.5000   0.5000  -0.5000    1.5824858    1.5844338   -1.5811259   0
   10  477.7714260  620.7605178  565.1276858   0.5000   0.5000  -0.5000    1.5824858    1.5844338   -1.5811259   0
   10  477.5925782  619.2254244  566.1939668   0.5000   0.5000  -0.5000    1.5824858    1.5844338   -1.5811259   0
   10  477.6989138  618.9725413  568.3947552   0.5000   0.5000  -0.5000    1.5824858    1.5844338   -1.5811259   0
   10  478.6827038  619.7429542  569.9615768   0.5000   0.5000  -0.5000    1.5824858    1.5844338   -1.5811259   0
   10  480.1564075  620.4199305  571.1383813   0.5000   0.5000  -0.5000    1.5824858    1.5844338   -1.5811259   0