ITEM: TIMESTEP
0
ITEM: NUMBER OF ATOMS
8301
ITEM: BOX BOUNDS pp pp pp 
0.0 695.624429
0.0 697.016475
0.0 698.004226
ITEM: ATOMS id x y z tbx tby tbz sbx sby sbz loop
    0  269.9987639  351.3570556  341.4935083   0.5000   0.5000  -0.5000    1.5820245    1.5843677   -1.5816949   0
    0  269.0483059  347.5222901  338.9869344   0.5000   0.5000  -0.5000    1.5820245    1.5843677   -1.5816949   0
    0  268.3666715  345.5854756  337.6464518   0.5000   0.5000  -0.5000    1.5820245    1.5843677   -1.5816949   0
    0  268.1159085  344.7273814  337.0339642   0.5000   0.5000  -0.5000    1.5820245    1.5843677   -1.5816949   0
    0  268.5250620  343.4069188  336.3972930   0.5000   0.5000  -0.5000    1.5820245    1.5843677   -1.5816949   0
    0  269.6103099  342.5052771  335.3024561   0.5000   0.5000  -0.5000    1.5820245    1.5843677   -1.5816949   0
    0  270.4178883  343.1705200  333.9141345   0.5000   0.5000  -0.5000    1.5820245    1.5843677   -1.5816949   0
    0  269.8441901  344.5890871  332.8921061   0.5000   0.5000  -0.5000    1.5820245    1.5843677   -1.5816949   0
    0  268.4856921  345.7119540  332.4287885   0.5000   0.5000  -0.5000    1.5820245    1.5843677   -1.5816949   0
    0  267.2380698  346.1265273  332.1507751   0.5000   0.5000  -0.5000    1.5820245    1.5843677   -1.5816949   0
    0  266.0780642  346.7361841  331.7663709   0.5000   0.5000  -0.5000    1.5820245    1.5843677   -1.5816949   0
    0  264.9299077  348.3070546  332.0942037   0.5000   0.5000  -0.5000    1.5820245    1.5843677   -1.5816949   0
    0  264.0272491  349.8506622  333.3162168   0.5000   0.5000  -0.5000    1.5820245    1.5843677   -1.5816949   0
    0  264.1615294  351.0847183  334.4325514   0.5000   0.5000  -0.5000    1.5820245    1.5843677   -1.5816949   0
    0  265.1118115  352.2326169  335.5528158   0.5000   0.5000  -0.5000    1.5820245    1.5843677   -1.5816949   0
    0  265.9046371  352.6220087  337.4103967   0.5000   0.5000  -0.5000    1.5820245    1.5843677   -1.5816949   0
    0  266.7545188  352.5763332  339.2407726   0.5000   0.5000  -0.5000    1.5820245    1.5843677   -1.5816949   0
    0  268.0914532  352.5087285  340.2828903   0.5000   0.5000  -0.5000    1.5820245    1.5843677   -1.5816949   0
    0  269.9987639  351.3570556  341.4935083   0.5000   0.5000  -0.5000    1.5820245    1.5843677   -1.5816949   0
    1  517.7660237  530.0293597  681.9678732   0.5000   0.5000   0.5000    1.5803905    1.5807449    1.5826863   1
    1  518.9077695  528.8567737  682.4669293   0.5000   0.5000   0.5000    1.5803905    1.5807449    1.5826863   1
    1  520.6461991  527.7567662  682.5194537   0.5000   0.5000   0.5000    1.5803905    1.5807449    1.5826863   1
    1  521.4076201  525.7295085  682.5617160   0.5000   0.5000   0.5000    1.5803905    1.5807449    1.5826863   1
    1  521.7439829  524.0887029  684.2858849   0.5000   0.5000   0.5000    1.5803905    1.5807449    1.5826863   1
    1  521.1027453  523.6805609  686.6450993   0.5000   0.5000   0.5000    1.5803905    1.5807449    1.5826863   1
    1  518.9466859  523.5063759  687.2326271   0.5000   0.5000   0.5000    1.5803905    1.5807449    1.5826863   1
    1  516.8354647  523.7296601  686.6304525   0.5000   0.5000   0.5000    1.5803905    1.5807449    1.5826863   1
    1  514.7976225  524.7428433  685.8699916   0.5000   0.5000   0.5000    1.5803905    1.5807449    1.5826863   1
    1  513.1726715  525.6046857  685.1705186   0.5000   0.5000   0.5000    1.5803905    1.5807449    1.5826863   1
    1  513.8447281  526.3071652  684.8634958   0.5000   0.5000   0.5000    1.5803905    1.5807449    1.5826863   1
    1  515.9298399  527.9012643  684.4217235   0.5000   0.5000   0.5000    1.5803905    1.5807449    1.5826863   1
    1  517.1316218  529.4987222  683.4704122   0.5000   0.5000   0.5000    1.5803905    1.5807449    1.5826863   1
    1  517.7660237  530.0293596  681.9678731   0.5000   0.5000   0.5000    1.5803905    1.5807449    1.5826863   1
    2  638.9461407  185.2192149  165.6667283  -0.5000  -0.5000  -0.5000   -1.5803905   -1.5807449   -1.5826863   0
    2  640.5897968  182.3957393  163.2229146  -0.5000  -0.5000  -0.5000   -1.5803905   -1.5807449   -1.5826863   0
    2  641.7196170  181.6961368  161.8964573  -0.5000  -0.5000  -0.5000   -1.5803905   -1.5807449   -1.5826863   0
    2  642.9412829  181.9026533  160.7209659  -0.5000  -0.5000  -0.5000   -1.5803905   -1.5807449   -1.5826863   0
    2  644.4402872  181.5947803  158.9448983  -0.5000  -0.5000  -0.5000   -1.5803905   -1.5807449   -1.5826863   0
    2  645.4960056  182.1987241  157.0809576  -0.5000  -0.5000  -0.5000   -1.5803905   -1.5807449   -1.5826863   0
    2  645.5688426  184.7007928  156.1443699  -0.5000  -0.5000  -0.5000   -1.5803905   -1.5807449   -1.5826863   0
    2  644.5082607  187.0997019  156.0257673  -0.5000  -0.5000  -0.5000   -1.5803905   -1.5807449   -1.5826863   0
    2  642.9415391  188.0157030  155.8681118  -0.5000  -0.5000  -0.5000   -1.5803905   -1.5807449   -1.5826863   0
    2  642.2830095  189.8005734  156.0021720  -0.5000  -0.5000  -0.5000   -1.5803905   -1.5807449   -1.5826863   0
    2  643.3473020  194.8974101  157.1530015  -0.5000  -0.5000  -0.5000   -1.5803905   -1.5807449   -1.5826863   0
    3  551.9879444  225.0377778   88.3529167  -0.5000  -0.5000  -0.5000   -1.5803905   -1.5807449   -1.5826863   0
    3  552.7967763  223.0213023   87.1753827  -0.5000  -0.5000  -0.5000   -1.5803905   -1.5807449   -1.5826863   0
    3  553.7906273  220.7523852   86.7948892  -0.5000  -0.5000  -0.5000   -1.5803905   -1.5807449   -1.5826863   0
    3  556.1713256  219.9331372   86.6872274  -0.5000  -0.5000  -0.5000   -1.5803905   -1.5807449   -1.5826863   0
    3  558.3791350  221.1746431   86.2238712  -0.5000  -0.5000  -0.5000   -1.5803905   -1.5807449   -1.5826863   0
    3  558.9978800  223.7926108   85.7777869  -0.5000  -0.5000  -0.5000   -1.5803905   -1.5807449   -1.5826863   0
    3  558.7090528  226.0104900   85.5467836  -0.5000  -0.5000  -0.5000   -1.5803905   -1.5807449   -1.5826863   0
    3  557.5876562  227.1585759   84.9899018  -0.5000  -0.5000  -0.5000   -1.5803905   -1.5807449   -1.5826863   0
    4  494.7559524  -28.8778082  596.9986350   0.5000   0.5000   0.5000    1.5803905    1.5807449    1.5826863   0
    4  496.1490545  -26.7776605  598.5944503   0.5000   0.5000   0.5000    1.5803905    1.5807449    1.5826863   0
    4  497.6303755  -25.0663969  600.0994879   0.5000   0.5000   0.5000    1.5803905    1.5807449    1.5826863   0
    4  498.9030614  -23.0705787  601.2898608   0.5000   0.5000   0.5000    1.5803905    1.5807449    1.5826863   0
    4  499.9493608  -20.4006762  602.1353169   0.5000   0.5000   0.5000    1.5803905    1.5807449    1.5826863   0
    4  500.8637537  -17.7955345  602.6038648   0.5000   0.5000   0.5000    1.5803905    1.5807449    1.5826863   0
    4  502.0039824  -15.7737762  602.6856105   0.5000   0.5000   0.5000    1.5803905    1.5807449    1.5826863   0
    4  503.4984575  -13.9075737  602.9522381   0.5000   0.5000   0.5000    1.5803905    1.5807449    1.5826863   0
    4  504.5634194  -11.9467440  603.4829173   0.5000   0.5000   0.5000    1.5803905    1.5807449    1.5826863   0
    4  505.3248943  -10.0879451  603.7506140   0.5000   0.5000   0.5000    1.5803905    1.5807449    1.5826863   0
    4  506.5053181   -8.3409906  604.0329215   0.5000   0.5000   0.5000    1.5803905    1.5807449    1.5826863   0
    4  507.8865792   -6.4720961  604.1557171   0.5000   0.5000   0.5000    1.5803905    1.5807449    1.5826863   0
    4  509.3555399   -4.8395009  603.8448879   0.5000   0.5000   0.5000    1.5803905    1.5807449    1.5826863   0
    4  510.8168351   -3.2917066  603.6101598   0.5000   0.5000   0.5000    1.5803905    1.5807449    1.5826863   0
    4  511.6552681   -0.8897134  603.7970206   0.5000   0.5000   0.5000    1.5803905    1.5807449    1.5826863   0
    4  512.4851869    1.2792075  604.1302387   0.5000   0.5000   0.5000    1.5803905    1.5807449    1.5826863   0
    4  514.3866382    1.8070366  604.2431997   0.5000   0.5000   0.5000    1.5803905    1.5807449    1.5826863   0
    4  516.0682163    2.4245628  604.0358161   0.5000   0.5000   0.5000    1.5803905    1.5807449    1.5826863   0
    4  516.8395953    4.7598965  603.6382634   0.5000   0.5000   0.5000    1.5803905    1.5807449    1.5826863   0
    4  518.0624670    7.2362950  603.7909902   0.5000   0.5000   0.5000    1.5803905    1.5807449    1.5826863   0
    4  520.2412296    8.4015459  604.4098613   0.5000   0.5000   0.5000    1.5803905    1.5807449    1.5826863   0
    4  522.9674345    8.8832579  604.7406495   0.5000   0.5000   0.5000    1.5803905    1.5807449    1.5826863   0
    4  525.5176330    9.3735349  605.0913204   0.5000   0.5000   0.5000    1.5803905    1.5807449    1.5826863   0
    4  527.6348792   10.0773994  605.7933004   0.5000   0.5000   0.5000    1.5803905    1.5807449    1.5826863   0
    4  529.6756325   10.9720241  606.7468244   0.5000   0.5000   0.5000    1.5803905    1.5807449    1.5826863   0
    4  531.4267726   11.8080343  607.8119180   0.5000   0.5000   0.5000    1.5803905    1.5807449    1.5826863   0
    4  532.2417655   13.2209752  608.5860805   0.5000   0.5000   0.5000    1.5803905    1.5807449    1.5826863   0
    4  532.3037251   15.6157860  608.8453494   0.5000   0.5000   0.5000    1.5803905    1.5807449    1.5826863   0
    4  532.6220452   18.1465442  609.0949360   0.5000   0.5000   0.5000    1.5803905    1.5807449    1.5826863   0
    4  533.1976552   20.4902759  610.1223266   0.5000   0.5000   0.5000    1.5803905    1.5807449    1.5826863   0
    4  533.5099405   22.5526574  611.8667606   0.5000   0.5000   0.5000    1.5803905    1.5807449    1.5826863   0
    4  533.9184520   24.2180687  613.5955112   0.5000   0.5000   0.5000    1.5803905    1.5807449    1.5826863   0
    4  534.8486665   25.9429423  615.0430160   0.5000   0.5000   0.5000    1.5803905    1.5807449    1.5826863   0
    4  536.0835193   28.2231022  616.1680199   0.5000   0.5000   0.5000    1.5803905    1.5807449    1.5826863   0
    4  536.7828739   30.8346218  616.7000369   0.5000   0.5000   0.5000    1.5803905    1.5807449    1.5826863   0
    4  537.1740769   33.0259475  617.0727057   0.5000   0.5000   0.5000    1.5803905    1.5807449    1.5826863   0
    4  538.1556826   34.9767214  618.1266701   0.5000   0.5000   0.5000    1.5803905    1.5807449    1.5826863   0
    4  539.1693802   36.8290735  619.8664306   0.5000   0.5000   0.5000    1.5803905    1.5807449    1.5826863   0
    4  539.6870514   37.8651933  622.1470529   0.5000   0.5000   0.5000    1.5803905    1.5807449    1.5826863   0
    4  539.9406193   38.5056733  624.4800501   0.5000   0.5000   0.5000    1.5803905    1.5807449    1.5826863   0
    4  540.2508870   40.0174345  626.1334886   0.5000   0.5000   0.5000    1.5803905    1.5807449    1.5826863   0
    4  540.7538536   41.9450672  627.8072644   0.5000   0.5000   0.5000    1.5803905    1.5807449    1.5826863   0
    4  541.2315469   43.5939021  629.6212149   0.5000   0.5000   0.5000    1.5803905    1.5807449    1.5826863   0
    4  541.8534149   45.6100392  630.7190921   0.5000   0.5000   0.5000    1.5803905    1.5807449    1.5826863   0
    4  542.7533973   48.2017147  631.7301703   0.5000   0.5000   0.5000    1.5803905    1.5807449    1.5826863   0
    4  543.7222206   50.4877438  632.2483667   0.5000   0.5000   0.5000    1.5803905    1.5807449    1.5826863   0
    4  544.2751921   52.1452998  631.2958672   0.5000   0.5000   0.5000    1.5803905    1.5807449    1.5826863   0
    4  544.6077401   53.9058590  630.2495823   0.5000   0.5000   0.5000    1.5803905    1.5807449    1.5826863   0
    4  545.2449561   55.8907833  629.7106917   0.5000   0.5000   0.5000    1.5803905    1.5807449    1.5826863   0
    4  546.1716647   57.4608400  629.1155662   0.5000   0.5000   0.5000    1.5803905    1.5807449    1.5826863   0
    4  547.4131686   58.0401967  627.9769492   0.5000   0.5000   0.5000    1.5803905    1.5807449    1.5826863   0
    4  548.6368370   57.9934333  626.4183687   0.5000   0.5000   0.5000    1.5803905    1.5807449    1.5826863   0
    4  549.8265498   58.3367507  626.0512442   0.5000   0.5000   0.5000    1.5803905    1.5807449    1.5826863   0
    4  550.9260241   59.5625464  627.1702597   0.5000   0.5000   0.5000    1.5803905    1.5807449    1.5826863   0
    4  551.1533659   60.8585514  628.7651820   0.5000   0.5000   0.5000    1.5803905    1.5807449    1.5826863   0
    4  550.4023546   61.5154620  630.5322915   0.5000   0.5000   0.5000    1.5803905    1.5807449    1.5826863   0
    4  549.4878391   61.4240890  632.2349823   0.5000   0.5000   0.5000    1.5803905    1.5807449    1.5826863   0
    4  548.9781495   61.0825899  634.0026572   0.5000   0.5000   0.5000    1.5803905    1.5807449    1.5826863   0
    4  548.3920579   61.8072201  636.0785599   0.5000   0.5000   0.5000    1.5803905    1.5807449    1.5826863   0
    4  547.3935563   63.3945235  638.0000467   0.5000   0.5000   0.5000    1.5803905    1.5807449    1.5826863   0
    4  547.3310498   64.5400848  639.5984494   0.5000   0.5000   0.5000    1.5803905    1.5807449    1.5826863   0
    4  548.5122935   64.2381061  640.8311169   0.5000   0.5000   0.5000    1.5803905    1.5807449    1.5826863   0
    4  549.3046605   62.6209519  641.3475294   0.5000   0.5000   0.5000    1.5803905    1.5807449    1.5826863   0
    4  549.5439089   60.9898547  641.3558218   0.5000   0.5000   0.5000    1.5803905    1.5807449    1.5826863   0
    4  550.0316969   59.7804235  641.7351972   0.5000   0.5000   0.5000    1.5803905    1.5807449    1.5826863   0
    4  550.4614570   58.8351300  643.2323409   0.5000   0.5000   0.5000    1.5803905    1.5807449    1.5826863   0
    4  550.8484251   58.5722288  645.8929600   0.5000   0.5000   0.5000    1.5803905    1.5807449    1.5826863   0
    4  551.2794255   58.8524673  649.0724341   0.5000   0.5000   0.5000    1.5803905    1.5807449    1.5826863   0
    4  551.2008725   59.5153624  651.7764252   0.5000   0.5000   0.5000    1.5803905    1.5807449    1.5826863   0
    4  550.8934092   60.7588543  653.7082376   0.5000   0.5000   0.5000    1.5803905    1.5807449    1.5826863   0
    4  550.9302471   62.2773926  655.2437169   0.5000   0.5000   0.5000    1.5803905    1.5807449    1.5826863   0
    4  550.9552125   63.8717439  656.6953336   0.5000   0.5000   0.5000    1.5803905    1.5807449    1.5826863   0
    4  550.7388507   65.5687683  658.0348158   0.5000   0.5000   0.5000    1.5803905    1.5807449    1.5826863   0
    4  550.8755507   67.6543043  658.9481503   0.5000   0.5000   0.5000    1.5803905    1.5807449    1.5826863   0
    4  551.4305072   69.9986663  659.9688933   0.5000   0.5000   0.5000    1.5803905    1.5807449    1.5826863   0
    4  551.7425709   72.1470735  661.6627845   0.5000   0.5000   0.5000    1.5803905    1.5807449    1.5826863   0
    4  551.4467435   73.8103888  663.4829746   0.5000   0.5000   0.5000    1.5803905    1.5807449    1.5826863   0
    4  550.7894821   74.9115757  664.9071859   0.5000   0.5000   0.5000    1.5803905    1.5807449    1.5826863   0
    4  549.9608033   76.0983097  666.0630148   0.5000   0.5000   0.5000    1.5803905    1.5807449    1.5826863   0
    4  549.2025550   77.7013954  667.4529778   0.5000   0.5000   0.5000    1.5803905    1.5807449    1.5826863   0
    4  549.1113224   79.4254578  668.6332138   0.5000   0.5000   0.5000    1.5803905    1.5807449    1.5826863   0
    4  549.6640398   81.2737057  668.8613737   0.5000   0.5000   0.5000    1.5803905    1.5807449    1.5826863   0
    4  550.4841403   83.3512123  668.9076853   0.5000   0.5000   0.5000    1.5803905    1.5807449    1.5826863   0
    4  551.5271195   85.5170849  669.3982509   0.5000   0.5000   0.5000    1.5803905    1.5807449    1.5826863   0
    4  552.5434350   87.8762770  670.1262291   0.5000   0.5000   0.5000    1.5803905    1.5807449    1.5826863   0
    4  553.3046421   90.6232694  670.8690654   0.5000   0.5000   0.5000    1.5803905    1.5807449    1.5826863   0
    4  553.5159813   93.2834685  671.4258975   0.5000   0.5000   0.5000    1.5803905    1.5807449    1.5826863   0
    4  552.8498998   95.2311558  672.0960421   0.5000   0.5000   0.5000    1.5803905    1.5807449    1.5826863   0
    4  551.9870361   96.6948773  672.9279775   0.5000   0.5000   0.5000    1.5803905    1.5807449    1.5826863   0
    4  551.5800227   98.5881879  673.4675666   0.5000   0.5000   0.5000    1.5803905    1.5807449    1.5826863   0
    4  552.0829259  100.4875489  673.2798572   0.5000   0.5000   0.5000    1.5803905    1.5807449    1.5826863   0
    4  553.9247122  101.3940423  672.4622579   0.5000   0.5000   0.5000    1.5803905    1.5807449    1.5826863   0
    4  556.2043155  102.1202495  671.9731350   0.5000   0.5000   0.5000    1.5803905    1.5807449    1.5826863   0
    4  558.1621936  103.4611058  672.2039036   0.5000   0.5000   0.5000    1.5803905    1.5807449    1.5826863   0
    4  560.0570294  104.7286296  672.4924976   0.5000   0.5000   0.5000    1.5803905    1.5807449    1.5826863   0
    4  561.9915406  105.5287864  672.4483957   0.5000   0.5000   0.5000    1.5803905    1.5807449    1.5826863   0
    4  563.7103375  106.4105848  672.1538816   0.5000   0.5000   0.5000    1.5803905    1.5807449    1.5826863   0
    4  565.0381246  107.5950528  671.5071374   0.5000   0.5000   0.5000    1.5803905    1.5807449    1.5826863   0
    4  566.1948336  109.0445257  671.3095550   0.5000   0.5000   0.5000    1.5803905    1.5807449    1.5826863   0
    4  567.0778848  110.8069090  672.0026429   0.5000   0.5000   0.5000    1.5803905    1.5807449    1.5826863   0
    4  567.3891142  112.4458562  673.1432068   0.5000   0.5000   0.5000    1.5803905    1.5807449    1.5826863   0
    4  567.2969929  114.0549821  674.6050985   0.5000   0.5000   0.5000    1.5803905    1.5807449    1.5826863   0
    4  567.3202340  116.3225580  675.7126711   0.5000   0.5000   0.5000    1.5803905    1.5807449    1.5826863   0
    4  568.0109233  118.8055702  676.4418414   0.5000   0.5000   0.5000    1.5803905    1.5807449    1.5826863   0
    4  568.9230778  120.7919918  677.2832282   0.5000   0.5000   0.5000    1.5803905    1.5807449    1.5826863   0
    4  569.5836168  122.2375039  677.5008257   0.5000   0.5000   0.5000    1.5803905    1.5807449    1.5826863   0
    4  570.4306258  123.4019761  677.1594805   0.5000   0.5000   0.5000    1.5803905    1.5807449    1.5826863   0
    4  571.2686048  124.5334579  677.6168695   0.5000   0.5000   0.5000    1.5803905    1.5807449    1.5826863   0
    4  571.7939448  125.5170828  678.9451709   0.5000   0.5000   0.5000    1.5803905    1.5807449    1.5826863   0
    4  571.9996976  126.2921392  680.7684130   0.5000   0.5000   0.5000    1.5803905    1.5807449    1.5826863   0
    4  571.7948808  127.1697287  682.7972863   0.5000   0.5000   0.5000    1.5803905    1.5807449    1.5826863   0
    4  571.8967967  128.7755300  684.2022046   0.5000   0.5000   0.5000    1.5803905    1.5807449    1.5826863   0
    4  572.0911990  130.9419765  685.0311716   0.5000   0.5000   0.5000    1.5803905    1.5807449    1.5826863   0
    4  571.5094162  132.9673355  686.1800730   0.5000   0.5000   0.5000    1.5803905    1.5807449    1.5826863   0
    4  570.9131145  135.0387061  687.3350555   0.5000   0.5000   0.5000    1.5803905    1.5807449    1.5826863   0
    4  571.1999541  137.2018620  687.9424670   0.5000   0.5000   0.5000    1.5803905    1.5807449    1.5826863   0
    4  571.8490604  139.2180657  688.5479482   0.5000   0.5000   0.5000    1.5803905    1.5807449    1.5826863   0
    4  572.1139254  141.2570046  689.3570001   0.5000   0.5000   0.5000    1.5803905    1.5807449    1.5826863   0
    4  572.2993558  143.4746948  690.0603426   0.5000   0.5000   0.5000    1.5803905    1.5807449    1.5826863   0
    4  572.6887574  145.5374852  690.9926241   0.5000   0.5000   0.5000    1.5803905    1.5807449    1.5826863   0
    4  572.8879620  147.0941987  692.4794474   0.5000   0.5000   0.5000    1.5803905    1.5807449    1.5826863   0
    4  572.9352942  148.4892955  693.9923803   0.5000   0.5000   0.5000    1.5803905    1.5807449    1.5826863   0
    4  572.8594332  150.0959051  695.3227932   0.5000   0.5000   0.5000    1.5803905    1.5807449    1.5826863   0
    4  572.5200009  152.1543272  696.3073977   0.5000   0.5000   0.5000    1.5803905    1.5807449    1.5826863   0
    4  572.5058096  154.9710006  696.5928192   0.5000   0.5000   0.5000    1.5803905    1.5807449    1.5826863   0
    4  572.8686857  158.2972435  696.7256827   0.5000   0.5000   0.5000    1.5803905    1.5807449    1.5826863   0
    4  573.1794336  161.5617501  697.2568410   0.5000   0.5000   0.5000    1.5803905    1.5807449    1.5826863   0
    4  573.5855660  164.4062613  697.9679900   0.5000   0.5000   0.5000    1.5803905    1.5807449    1.5826863   0
    4  574.3743892  166.7479775  698.4475067   0.5000   0.5000   0.5000    1.5803905    1.5807449    1.5826863   0
    4  575.6312228  168.9472220  698.4631153   0.5000   0.5000   0.5000    1.5803905    1.5807449    1.5826863   0
    4  576.7881250  171.3128666  698.3724585   0.5000   0.5000   0.5000    1.5803905    1.5807449    1.5826863   0
    4  577.5004917  173.5800738  698.5963382   0.5000   0.5000   0.5000    1.5803905    1.5807449    1.5826863   0
    4  578.2799051  175.6654570  699.3848778   0.5000   0.5000   0.5000    1.5803905    1.5807449    1.5826863   0
    4  578.8640745  177.6898214  700.8484491   0.5000   0.5000   0.5000    1.5803905    1.5807449    1.5826863   0
    4  578.9307865  179.7047243  702.3792888   0.5000   0.5000   0.5000    1.5803905    1.5807449    1.5826863   0
    4  578.9773996  182.4994011  703.0924873   0.5000   0.5000   0.5000    1.5803905    1.5807449    1.5826863   0
    4  579.5732773  185.3891686  702.9981272   0.5000   0.5000   0.5000    1.5803905    1.5807449    1.5826863   0
    4  580.9445035  187.0446161  702.9881516   0.5000   0.5000   0.5000    1.5803905    1.5807449    1.5826863   0
    4  582.5289807  188.3377352  703.2962138   0.5000   0.5000   0.5000    1.5803905    1.5807449    1.5826863   0
    4  584.0442355  189.8056869  703.2923818   0.5000   0.5000   0.5000    1.5803905    1.5807449    1.5826863   0
    4  585.4849473  191.3297739  703.4477204   0.5000   0.5000   0.5000    1.5803905    1.5807449    1.5826863   0
    4  586.3901642  192.8801119  704.2548483   0.5000   0.5000   0.5000    1.5803905    1.5807449    1.5826863   0
    4  587.0492296  194.2236668  704.5608473   0.5000   0.5000   0.5000    1.5803905    1.5807449    1.5826863   0
    4  588.5544293  195.4458743  703.9099223   0.5000   0.5000   0.5000    1.5803905    1.5807449    1.5826863   0
    4  590.7460815  195.9528530  702.4914866   0.5000   0.5000   0.5000    1.5803905    1.5807449    1.5826863   0
    4  592.5650647  195.7568604  701.2210156   0.5000   0.5000   0.5000    1.5803905    1.5807449    1.5826863   0
    4  593.8536104  196.3041077  701.5323182   0.5000   0.5000   0.5000    1.5803905    1.5807449    1.5826863   0
    4  594.2223154  197.7011702  702.7799641   0.5000   0.5000   0.5000    1.5803905    1.5807449    1.5826863   0
    4  593.7898456  199.0831266  703.7521727   0.5000   0.5000   0.5000    1.5803905    1.5807449    1.5826863   0
    4  594.1491170  200.5633074  704.0160237   0.5000   0.5000   0.5000    1.5803905    1.5807449    1.5826863   0
    4  595.3289461  202.6253945  704.1516534   0.5000   0.5000   0.5000    1.5803905    1.5807449    1.5826863   0
    4  596.3003045  204.8093989  704.7336522   0.5000   0.5000   0.5000    1.5803905    1.5807449    1.5826863   0
    4  597.2808138  206.5370164  705.1592806   0.5000   0.5000   0.5000    1.5803905    1.5807449    1.5826863   0
    4  598.7577201  207.9472122  705.5760551   0.5000   0.5000   0.5000    1.5803905    1.5807449    1.5826863   0
    4  600.3182908  209.3479583  705.9441146   0.5000   0.5000   0.5000    1.5803905    1.5807449    1.5826863   0
    4  601.3251924  211.0003933  705.7432683   0.5000   0.5000   0.5000    1.5803905    1.5807449    1.5826863   0
    4  601.7614132  212.6169726  705.5108383   0.5000   0.5000   0.5000    1.5803905    1.5807449    1.5826863   0
    4  602.4945313  213.5457973  705.1818477   0.5000   0.5000   0.5000    1.5803905    1.5807449    1.5826863   0
    4  604.2305914  214.4051359  704.3446596   0.5000   0.5000   0.5000    1.5803905    1.5807449    1.5826863   0
    4  606.5252706  216.0196627  703.4280397   0.5000   0.5000   0.5000    1.5803905    1.5807449    1.5826863   0
    4  608.3052842  217.3572894  703.0859645   0.5000   0.5000   0.5000    1.5803905    1.5807449    1.5826863   0
    4  609.7962114  218.8191839  703.4060017   0.5000   0.5000   0.5000    1.5803905    1.5807449    1.5826863   0
    4  612.6579286  221.9664978  703.7240777   0.5000   0.5000   0.5000    1.5803905    1.5807449    1.5826863   0
    5  266.6198571    8.4518357  353.7629285  -0.5000  -0.5000   0.5000   -1.5820245   -1.5843677    1.5816949   0
    5  265.6191292   10.0804518  352.9039322  -0.5000  -0.5000   0.5000   -1.5820245   -1.5843677    1.5816949   0
    5  265.1172185   12.0015158  352.5650948  -0.5000  -0.5000   0.5000   -1.5820245   -1.5843677    1.5816949   0
    5  265.1252068   14.2009741  353.0616268  -0.5000  -0.5000   0.5000   -1.5820245   -1.5843677    1.5816949   0
    5  265.0997813   16.1015475  354.2056400  -0.5000  -0.5000   0.5000   -1.5820245   -1.5843677    1.5816949   0
    5  265.6593609   16.9576153  355.9433260  -0.5000  -0.5000   0.5000   -1.5820245   -1.5843677    1.5816949   0
    5  267.4115543   16.9071062  357.6945712  -0.5000  -0.5000   0.5000   -1.5820245   -1.5843677    1.5816949   0
    5  269.2173740   16.2071684  358.2370067  -0.5000  -0.5000   0.5000   -1.5820245   -1.5843677    1.5816949   0
    5  270.5309036   15.0877336  357.6402462  -0.5000  -0.5000   0.5000   -1.5820245   -1.5843677    1.5816949   0
    5  272.5431916   14.3483044  357.4063961  -0.5000  -0.5000   0.5000   -1.5820245   -1.5843677    1.5816949   0
    5  274.8749438   13.5441834  357.8293528  -0.5000  -0.5000   0.5000   -1.5820245   -1.5843677    1.5816949   0
    5  276.1642606   12.1301209  358.1367900  -0.5000  -0.5000   0.5000   -1.5820245   -1.5843677    1.5816949   0
    5  276.9809176   11.3691881  358.4439294  -0.5000  -0.5000   0.5000   -1.5820245   -1.5843677    1.5816949   0
    5  278.1412143   11.5995250  359.1490000  -0.5000  -0.5000   0.5000   -1.5820245   -1.5843677    1.5816949   0
    6  200.9220683  334.6172051  592.3822281  -0.0000  -1.0000  -0.0000    0.0019733   -3.1644750   -0.0030086   1
    6  200.4640170  334.8217915  592.5563835  -0.0000  -1.0000  -0.0000    0.0019733   -3.1644750   -0.0030086   1
    6  199.1585098  334.5980998  593.6708030  -0.0000  -1.0000  -0.0000    0.0019733   -3.1644750   -0.0030086   1
    6  198.3953801  333.4996787  595.6724663  -0.0000  -1.0000  -0.0000    0.0019733   -3.1644750   -0.0030086   1
    6  199.2454420  333.0004505  597.1409892  -0.0000  -1.0000  -0.0000    0.0019733   -3.1644750   -0.0030086   1
    6  200.9842016  333.0147508  598.5405151  -0.0000  -1.0000  -0.0000    0.0019733   -3.1644750   -0.0030086   1
    6  202.8076943  332.8495459  600.2877221  -0.0000  -1.0000  -0.0000    0.0019733   -3.1644750   -0.0030086   1
    6  203.3648759  332.3235222  601.6369968  -0.0000  -1.0000  -0.0000    0.0019733   -3.1644750   -0.0030086   1
    6  202.4224420  332.0437688  602.8737323  -0.0000  -1.0000  -0.0000    0.0019733   -3.1644750   -0.0030086   1
    6  201.0256816  332.3373648  604.5403503  -0.0000  -1.0000  -0.0000    0.0019733   -3.1644750   -0.0030086   1
    6  199.7004725  332.3808064  605.5997071  -0.0000  -1.0000  -0.0000    0.0019733   -3.1644750   -0.0030086   1
    6  198.1777103  331.8558602  605.1065144  -0.0000  -1.0000  -0.0000    0.0019733   -3.1644750   -0.0030086   1
    6  196.5860202  331.4196919  603.3647771  -0.0000  -1.0000  -0.0000    0.0019733   -3.1644750   -0.0030086   1
    6  195.6003856  330.9874371  601.3554240  -0.0000  -1.0000  -0.0000    0.0019733   -3.1644750   -0.0030086   1
    6  195.3543222  330.7221532  599.7159796  -0.0000  -1.0000  -0.0000    0.0019733   -3.1644750   -0.0030086   1
    6  196.0526254  331.7939372  598.2830899  -0.0000  -1.0000  -0.0000    0.0019733   -3.1644750   -0.0030086   1
    6  197.7882337  333.2930497  596.2487044  -0.0000  -1.0000  -0.0000    0.0019733   -3.1644750   -0.0030086   1
    6  200.9220683  334.6172051  592.3822281  -0.0000  -1.0000  -0.0000    0.0019733   -3.1644750   -0.0030086   1
    7   20.1546738  132.0109911  194.4093333   0.5000   0.5000   0.5000    1.5803905    1.5807449    1.5826863   0
    7   19.9093879  129.3476796  196.8013778   0.5000   0.5000   0.5000    1.5803905    1.5807449    1.5826863   0
    7   18.8033755  127.3810261  198.1822040   0.5000   0.5000   0.5000    1.5803905    1.5807449    1.5826863   0
    7   16.9949624  126.4423638  199.5307301   0.5000   0.5000   0.5000    1.5803905    1.5807449    1.5826863   0
    7   15.9544849  125.9538654  201.3938086   0.5000   0.5000   0.5000    1.5803905    1.5807449    1.5826863   0
    7   15.7278326  125.5577030  202.9038180   0.5000   0.5000   0.5000    1.5803905    1.5807449    1.5826863   0
    7   15.1411815  124.7981851  203.7040982   0.5000   0.5000   0.5000    1.5803905    1.5807449    1.5826863   0
    7   14.8372003  123.4561889  204.3789897   0.5000   0.5000   0.5000    1.5803905    1.5807449    1.5826863   0
    7   15.8030138  122.3940574  205.3518301   0.5000   0.5000   0.5000    1.5803905    1.5807449    1.5826863   0
    7   16.9363066  121.8601304  206.2771578   0.5000   0.5000   0.5000    1.5803905    1.5807449    1.5826863   0
    7   17.3125613  120.7469122  206.5608353   0.5000   0.5000   0.5000    1.5803905    1.5807449    1.5826863   0
    7   17.9178111  119.1010724  206.4870284   0.5000   0.5000   0.5000    1.5803905    1.5807449    1.5826863   0