ITEM: TIMESTEP
0
ITEM: NUMBER OF ATOMS
7303
ITEM: BOX BOUNDS pp pp pp 
0.0 695.943255
0.0 696.571224
0.0 698.161761
ITEM: ATOMS id x y z tbx tby tbz sbx sby sbz loop
    0   29.1499785  259.6470714  367.3028571  -0.5000  -0.5000   0.5000   -1.5829246   -1.5843476    1.5810203   0
    0   28.5686719  260.0250613  365.8244163  -0.5000  -0.5000   0.5000   -1.5829246   -1.5843476    1.5810203   0
    0   27.3129826  260.1999259  364.3552608  -0.5000  -0.5000   0.5000   -1.5829246   -1.5843476    1.5810203   0
    0   26.3412550  260.4303382  362.3270770  -0.5000  -0.5000   0.5000   -1.5829246   -1.5843476    1.5810203   0
    0   25.7231793  260.5745547  360.1445789  -0.5000  -0.5000   0.5000   -1.5829246   -1.5843476    1.5810203   0
    0   24.6477966  260.2456300  357.9282159  -0.5000  -0.5000   0.5000   -1.5829246   -1.5843476    1.5810203   0
    0   23.3297331  259.5505474  355.8041253  -0.5000  -0.5000   0.5000   -1.5829246   -1.5843476    1.5810203   0
    0   21.8149000  259.1322305  354.9919281  -0.5000  -0.5000   0.5000   -1.5829246   -1.5843476    1.5810203   0
    0   20.1570469  259.7135761  355.3854177  -0.5000  -0.5000   0.5000   -1.5829246   -1.5843476    1.5810203   0
    0   18.8258136  261.0666585  356.4019428  -0.5000  -0.5000   0.5000   -1.5829246   -1.5843476    1.5810203   0
    0   18.2367732  262.4173566  358.2744956  -0.5000  -0.5000   0.5000   -1.5829246   -1.5843476    1.5810203   0
    0   17.8862264  263.6197975  360.2360513  -0.5000  -0.5000   0.5000   -1.5829246   -1.5843476    1.5810203   0
    0   17.5312882  265.0222049  361.5096620  -0.5000  -0.5000   0.5000   -1.5829246   -1.5843476    1.5810203   0
    0   17.8617837  266.1634025  362.9009096  -0.5000  -0.5000   0.5000   -1.5829246   -1.5843476    1.5810203   0
    0   18.2435753  266.2072231  365.1875077  -0.5000  -0.5000   0.5000   -1.5829246   -1.5843476    1.5810203   0
    0   19.1098406  265.9532780  367.3628765  -0.5000  -0.5000   0.5000   -1.5829246   -1.5843476    1.5810203   0
    0   21.1599633  266.4171391  368.7132398  -0.5000  -0.5000   0.5000   -1.5829246   -1.5843476    1.5810203   0
    0   23.1921765  266.6147580  370.0213571  -0.5000  -0.5000   0.5000   -1.5829246   -1.5843476    1.5810203   0
    0   25.3476966  266.3338342  371.1640257  -0.5000  -0.5000   0.5000   -1.5829246   -1.5843476    1.5810203   0
    0   27.8897283  266.7755442  372.2305629  -0.5000  -0.5000   0.5000   -1.5829246   -1.5843476    1.5810203   0
    0   29.9824776  267.6550844  373.4701535  -0.5000  -0.5000   0.5000   -1.5829246   -1.5843476    1.5810203   0
    0   31.3890599  268.7422624  374.1915436  -0.5000  -0.5000   0.5000   -1.5829246   -1.5843476    1.5810203   0
    0   32.3187955  270.9902506  374.4611305  -0.5000  -0.5000   0.5000   -1.5829246   -1.5843476    1.5810203   0
    0   32.2489979  273.8226941  374.9284610  -0.5000  -0.5000   0.5000   -1.5829246   -1.5843476    1.5810203   0
    0   31.1894359  275.5908034  375.7348035  -0.5000  -0.5000   0.5000   -1.5829246   -1.5843476    1.5810203   0
    0   30.8144784  276.7573203  376.6046606  -0.5000  -0.5000   0.5000   -1.5829246   -1.5843476    1.5810203   0
    0   31.2015768  278.2237943  377.9523043  -0.5000  -0.5000   0.5000   -1.5829246   -1.5843476    1.5810203   0
    0   31.4357909  279.3624365  380.1874053  -0.5000  -0.5000   0.5000   -1.5829246   -1.5843476    1.5810203   0
    0   31.7872052  280.1373364  382.7346305  -0.5000  -0.5000   0.5000   -1.5829246   -1.5843476    1.5810203   0
    0   31.7849405  281.0149237  385.1116107  -0.5000  -0.5000   0.5000   -1.5829246   -1.5843476    1.5810203   0
    0   31.0376039  282.0907901  386.7209535  -0.5000  -0.5000   0.5000   -1.5829246   -1.5843476    1.5810203   0
    0   31.2381466  282.8056535  387.1952530  -0.5000  -0.5000   0.5000   -1.5829246   -1.5843476    1.5810203   0
    0   32.8485760  282.8215317  387.5761241  -0.5000  -0.5000   0.5000   -1.5829246   -1.5843476    1.5810203   0
    0   34.4085005  282.8991451  388.5568728  -0.5000  -0.5000   0.5000   -1.5829246   -1.5843476    1.5810203   0
    0   35.2875084  283.1160273  390.5136795  -0.5000  -0.5000   0.5000   -1.5829246   -1.5843476    1.5810203   0
    0   35.9769857  283.1893569  393.3158419  -0.5000  -0.5000   0.5000   -1.5829246   -1.5843476    1.5810203   0
    0   36.9944494  283.0741382  395.5397530  -0.5000  -0.5000   0.5000   -1.5829246   -1.5843476    1.5810203   0
    0   37.8908360  283.1909900  397.0818870  -0.5000  -0.5000   0.5000   -1.5829246   -1.5843476    1.5810203   0
    0   39.0338432  284.3754642  398.2448383  -0.5000  -0.5000   0.5000   -1.5829246   -1.5843476    1.5810203   0
    0   40.7016793  285.8764838  399.1444720  -0.5000  -0.5000   0.5000   -1.5829246   -1.5843476    1.5810203   0
    0   41.5738051  286.8076565  400.2252012  -0.5000  -0.5000   0.5000   -1.5829246   -1.5843476    1.5810203   0
    0   41.0172389  288.0239553  400.6007585  -0.5000  -0.5000   0.5000   -1.5829246   -1.5843476    1.5810203   0
    0   39.7153007  289.6350924  400.4035366  -0.5000  -0.5000   0.5000   -1.5829246   -1.5843476    1.5810203   0
    0   37.7086232  290.7178246  400.6067593  -0.5000  -0.5000   0.5000   -1.5829246   -1.5843476    1.5810203   0
    0   35.1854727  291.9113240  400.7110644  -0.5000  -0.5000   0.5000   -1.5829246   -1.5843476    1.5810203   0
    0   33.3553709  293.7739458  400.8606196  -0.5000  -0.5000   0.5000   -1.5829246   -1.5843476    1.5810203   0
    0   32.2080496  295.2242342  400.8548343  -0.5000  -0.5000   0.5000   -1.5829246   -1.5843476    1.5810203   0
    0   31.3285441  295.7262834  399.1577538  -0.5000  -0.5000   0.5000   -1.5829246   -1.5843476    1.5810203   0
    0   30.3059603  295.7061131  396.6006269  -0.5000  -0.5000   0.5000   -1.5829246   -1.5843476    1.5810203   0
    0   28.9447980  295.9330192  394.5421424  -0.5000  -0.5000   0.5000   -1.5829246   -1.5843476    1.5810203   0
    0   27.8267134  296.4042566  392.3135716  -0.5000  -0.5000   0.5000   -1.5829246   -1.5843476    1.5810203   0
    0   27.0824376  296.8909175  391.1731583  -0.5000  -0.5000   0.5000   -1.5829246   -1.5843476    1.5810203   0
    0   26.1449432  297.5702775  391.8992526  -0.5000  -0.5000   0.5000   -1.5829246   -1.5843476    1.5810203   0
    0   24.4718872  298.7057530  392.4400667  -0.5000  -0.5000   0.5000   -1.5829246   -1.5843476    1.5810203   0
    0   23.3930529  300.4530499  393.0976100  -0.5000  -0.5000   0.5000   -1.5829246   -1.5843476    1.5810203   0
    0   23.1220502  302.0743143  394.6332333  -0.5000  -0.5000   0.5000   -1.5829246   -1.5843476    1.5810203   0
    0   22.0689748  303.4060332  396.0189403  -0.5000  -0.5000   0.5000   -1.5829246   -1.5843476    1.5810203   0
    0   20.6424288  304.4755275  397.4636457  -0.5000  -0.5000   0.5000   -1.5829246   -1.5843476    1.5810203   0
    0   18.9852512  304.9988670  398.7502481  -0.5000  -0.5000   0.5000   -1.5829246   -1.5843476    1.5810203   0
    0   16.6404048  305.7471039  398.8772077  -0.5000  -0.5000   0.5000   -1.5829246   -1.5843476    1.5810203   0
    0   14.7693379  307.3331309  398.5100247  -0.5000  -0.5000   0.5000   -1.5829246   -1.5843476    1.5810203   0
    0   13.8435519  308.9570216  398.9137673  -0.5000  -0.5000   0.5000   -1.5829246   -1.5843476    1.5810203   0
    0   13.0905988  310.3050405  400.1769075  -0.5000  -0.5000   0.5000   -1.5829246   -1.5843476    1.5810203   0
    0   11.7934298  311.2699810  401.4902318  -0.5000  -0.5000   0.5000   -1.5829246   -1.5843476    1.5810203   0
    0    9.7158095  311.7210340  402.1860840  -0.5000  -0.5000   0.5000   -1.5829246   -1.5843476    1.5810203   0
    0    7.9608594  313.0037808  402.6486050  -0.5000  -0.5000   0.5000   -1.5829246   -1.5843476    1.5810203   0
    0    7.0370534  315.1644664  404.2905772  -0.5000  -0.5000   0.5000   -1.5829246   -1.5843476    1.5810203   0
    0    5.9746706  316.8337500  407.4463125  -0.5000  -0.5000   0.5000   -1.5829246   -1.5843476    1.5810203   0
    1  145.9764687  658.2665134  340.6917857  -0.5000   0.5000   0.5000   -1.5857211    1.5800902    1.5836067   0
    1  148.5686705  659.7539819  341.3648047  -0.5000   0.5000   0.5000   -1.5857211    1.5800902    1.5836067   0
    1  149.6339807  659.9794933  342.9720943  -0.5000   0.5000   0.5000   -1.5857211    1.5800902    1.5836067   0
    1  150.1100088  659.9745716  344.8427875  -0.5000   0.5000   0.5000   -1.5857211    1.5800902    1.5836067   0
    1  150.7723413  659.4661898  346.5016925  -0.5000   0.5000   0.5000   -1.5857211    1.5800902    1.5836067   0
    1  151.1980980  658.1599119  348.2503653  -0.5000   0.5000   0.5000   -1.5857211    1.5800902    1.5836067   0
    1  151.3116744  656.1792668  349.7416520  -0.5000   0.5000   0.5000   -1.5857211    1.5800902    1.5836067   0
    1  150.7621550  653.9987224  350.1383410  -0.5000   0.5000   0.5000   -1.5857211    1.5800902    1.5836067   0
    1  149.3450700  652.8841586  349.3826921  -0.5000   0.5000   0.5000   -1.5857211    1.5800902    1.5836067   0
    1  147.9605305  652.6421465  347.7359942  -0.5000   0.5000   0.5000   -1.5857211    1.5800902    1.5836067   0
    1  146.6074769  652.9512467  345.9946095  -0.5000   0.5000   0.5000   -1.5857211    1.5800902    1.5836067   0
    1  145.1918594  654.2354247  344.7918194  -0.5000   0.5000   0.5000   -1.5857211    1.5800902    1.5836067   0
    1  144.8588914  656.2223542  343.1968316  -0.5000   0.5000   0.5000   -1.5857211    1.5800902    1.5836067   0
    1  145.9764687  658.2665134  340.6917857  -0.5000   0.5000   0.5000   -1.5857211    1.5800902    1.5836067   0
    2  444.1382975  628.1162421  274.1690160   0.5000   0.5000   0.5000    1.5787317    1.5801691    1.5833862   1
    2  443.9363891  627.7987360  272.4260670   0.5000   0.5000   0.5000    1.5787317    1.5801691    1.5833862   1
    2  443.6140856  629.1452425  270.6206265   0.5000   0.5000   0.5000    1.5787317    1.5801691    1.5833862   1
    2  443.7514776  631.1489676  269.4527232   0.5000   0.5000   0.5000    1.5787317    1.5801691    1.5833862   1
    2  444.8589775  632.0436902  267.8541329   0.5000   0.5000   0.5000    1.5787317    1.5801691    1.5833862   1
    2  446.8946087  631.9474360  266.1976496   0.5000   0.5000   0.5000    1.5787317    1.5801691    1.5833862   1
    2  448.9906214  630.9672187  265.3905277   0.5000   0.5000   0.5000    1.5787317    1.5801691    1.5833862   1
    2  450.5628727  629.0919042  265.3140295   0.5000   0.5000   0.5000    1.5787317    1.5801691    1.5833862   1
    2  451.7939177  627.4123720  265.9061741   0.5000   0.5000   0.5000    1.5787317    1.5801691    1.5833862   1
    2  452.8134450  626.2926003  267.0196782   0.5000   0.5000   0.5000    1.5787317    1.5801691    1.5833862   1
    2  453.0892550  624.9509638  268.2211119   0.5000   0.5000   0.5000    1.5787317    1.5801691    1.5833862   1
    2  452.2069602  623.6086825  269.4017878   0.5000   0.5000   0.5000    1.5787317    1.5801691    1.5833862   1
    2  450.6446584  623.6185213  270.3503018   0.5000   0.5000   0.5000    1.5787317    1.5801691    1.5833862   1
    2  448.6797385  624.4444696  270.7708749   0.5000   0.5000   0.5000    1.5787317    1.5801691    1.5833862   1
    2  446.6399259  625.0301015  271.3780551   0.5000   0.5000   0.5000    1.5787317    1.5801691    1.5833862   1
    2  445.4539016  625.9708744  272.2359880   0.5000   0.5000   0.5000    1.5787317    1.5801691    1.5833862   1
    2  444.9136341  627.1341959  273.1079971   0.5000   0.5000   0.5000    1.5787317    1.5801691    1.5833862   1
    2  444.1382975  628.1162422  274.1690161   0.5000   0.5000   0.5000    1.5787317    1.5801691    1.5833862   1
    3  458.3925001  467.9146666  498.6550000  -0.5000  -0.5000   0.5000   -1.5829246   -1.5843476    1.5810203   0
    3  462.0318853  464.6066017  497.5488747  -0.5000  -0.5000   0.5000   -1.5829246   -1.5843476    1.5810203   0
    3  463.8022573  462.2926625  496.9431919  -0.5000  -0.5000   0.5000   -1.5829246   -1.5843476    1.5810203   0
    3  464.6982467  460.2469596  496.1087034  -0.5000  -0.5000   0.5000   -1.5829246   -1.5843476    1.5810203   0
    3  466.0938162  458.6160004  495.3092340  -0.5000  -0.5000   0.5000   -1.5829246   -1.5843476    1.5810203   0
    3  467.1567061  458.1450110  494.3208007  -0.5000  -0.5000   0.5000   -1.5829246   -1.5843476    1.5810203   0
    3  467.1618935  457.5605850  493.0892219  -0.5000  -0.5000   0.5000   -1.5829246   -1.5843476    1.5810203   0
    3  468.0982552  456.5457986  492.5427175  -0.5000  -0.5000   0.5000   -1.5829246   -1.5843476    1.5810203   0
    3  469.9729174  456.4238662  492.9771393  -0.5000  -0.5000   0.5000   -1.5829246   -1.5843476    1.5810203   0
    3  470.6310549  456.6280511  494.5439916  -0.5000  -0.5000   0.5000   -1.5829246   -1.5843476    1.5810203   0
    3  470.9100040  456.4819160  496.5282026  -0.5000  -0.5000   0.5000   -1.5829246   -1.5843476    1.5810203   0
    3  472.3195547  456.2865424  497.7302377  -0.5000  -0.5000   0.5000   -1.5829246   -1.5843476    1.5810203   0
    3  474.0821077  455.5320054  498.3593836  -0.5000  -0.5000   0.5000   -1.5829246   -1.5843476    1.5810203   0
    3  475.6349899  454.5053956  498.8006233  -0.5000  -0.5000   0.5000   -1.5829246   -1.5843476    1.5810203   0
    3  476.9813146  453.9473492  498.6513500  -0.5000  -0.5000   0.5000   -1.5829246   -1.5843476    1.5810203   0
    3  479.3450208  453.4659366  500.2098583  -0.5000  -0.5000   0.5000   -1.5829246   -1.5843476    1.5810203   0
    3  484.6082985  452.8366157  506.4439076  -0.5000  -0.5000   0.5000   -1.5829246   -1.5843476    1.5810203   0
    4  432.8099523  566.2085298  682.0123989  -0.0000  -0.0000   1.0000   -0.0041929   -0.0041785    3.1644064   0
    4  431.3849035  566.6051310  684.1340737  -0.0000  -0.0000   1.0000   -0.0041929   -0.0041785    3.1644064   0
    4  430.0335118  566.8289774  685.9408416  -0.0000  -0.0000   1.0000   -0.0041929   -0.0041785    3.1644064   0
    4  429.2076273  566.4466231  687.5742041  -0.0000  -0.0000   1.0000   -0.0041929   -0.0041785    3.1644064   0
    4  428.9248864  566.2868838  689.4907344  -0.0000  -0.0000   1.0000   -0.0041929   -0.0041785    3.1644064   0
    4  428.3137248  565.7540472  691.5137978  -0.0000  -0.0000   1.0000   -0.0041929   -0.0041785    3.1644064   0
    4  427.9841431  564.5609608  693.4490035  -0.0000  -0.0000   1.0000   -0.0041929   -0.0041785    3.1644064   0
    4  428.2580774  563.5032978  695.5711051  -0.0000  -0.0000   1.0000   -0.0041929   -0.0041785    3.1644064   0
    4  427.8105629  563.0657367  697.7080577  -0.0000  -0.0000   1.0000   -0.0041929   -0.0041785    3.1644064   0
    4  426.7632439  562.9901034  699.3615034  -0.0000  -0.0000   1.0000   -0.0041929   -0.0041785    3.1644064   0
    4  425.0925666  562.5428000  700.7360374  -0.0000  -0.0000   1.0000   -0.0041929   -0.0041785    3.1644064   0
    5  622.8591634  657.8376263  110.4520123  -0.5000  -0.5000   0.5000   -1.5829246   -1.5843476    1.5810203   1
    5  624.5992427  658.4075890  109.4735397  -0.5000  -0.5000   0.5000   -1.5829246   -1.5843476    1.5810203   1
    5  625.6948218  658.4816489  107.9472668  -0.5000  -0.5000   0.5000   -1.5829246   -1.5843476    1.5810203   1
    5  626.5005562  658.1332839  106.1469029  -0.5000  -0.5000   0.5000   -1.5829246   -1.5843476    1.5810203   1
    5  627.0799323  657.7085293  103.7598043  -0.5000  -0.5000   0.5000   -1.5829246   -1.5843476    1.5810203   1
    5  626.6991804  657.3128593  101.2960260  -0.5000  -0.5000   0.5000   -1.5829246   -1.5843476    1.5810203   1
    5  625.3458775  656.4726420  100.0712058  -0.5000  -0.5000   0.5000   -1.5829246   -1.5843476    1.5810203   1
    5  624.2158399  656.3394494   99.3749746  -0.5000  -0.5000   0.5000   -1.5829246   -1.5843476    1.5810203   1
    5  623.6961888  657.8166439   98.4829999  -0.5000  -0.5000   0.5000   -1.5829246   -1.5843476    1.5810203   1
    5  622.6197114  659.3593363   98.2956984  -0.5000  -0.5000   0.5000   -1.5829246   -1.5843476    1.5810203   1
    5  621.3006547  660.5017651   98.8168344  -0.5000  -0.5000   0.5000   -1.5829246   -1.5843476    1.5810203   1
    5  620.7199452  661.8165424  100.0862336  -0.5000  -0.5000   0.5000   -1.5829246   -1.5843476    1.5810203   1
    5  620.4303196  662.4977833  102.7763290  -0.5000  -0.5000   0.5000   -1.5829246   -1.5843476    1.5810203   1
    5  620.4519727  662.8299569  105.5966442  -0.5000  -0.5000   0.5000   -1.5829246   -1.5843476    1.5810203   1
    5  621.1956437  663.1718831  107.1817613  -0.5000  -0.5000   0.5000   -1.5829246   -1.5843476    1.5810203   1
    5  622.4128701  662.6754885  108.1195627  -0.5000  -0.5000   0.5000   -1.5829246   -1.5843476    1.5810203   1
    5  623.2590174  661.3726290  109.0998868  -0.5000  -0.5000   0.5000   -1.5829246   -1.5843476    1.5810203   1
    5  623.0303138  659.7952977  109.9094072  -0.5000  -0.5000   0.5000   -1.5829246   -1.5843476    1.5810203   1
    5  622.8591634  657.8376264  110.4520124  -0.5000  -0.5000   0.5000   -1.5829246   -1.5843476    1.5810203   1
    6  534.4894805   66.3457960  285.7525140  -0.5000   0.5000   0.5000   -1.5857211    1.5800902    1.5836067   1
    6  536.5043560   66.1238359  285.8971968  -0.5000   0.5000   0.5000   -1.5857211    1.5800902    1.5836067   1
    6  537.5375530   65.9914421  286.8750017  -0.5000   0.5000   0.5000   -1.5857211    1.5800902    1.5836067   1
    6  538.2868933   65.9033387  288.6107150  -0.5000   0.5000   0.5000   -1.5857211    1.5800902    1.5836067   1
    6  539.4344888   66.0869260  291.2461288  -0.5000   0.5000   0.5000   -1.5857211    1.5800902    1.5836067   1
    6  540.2332687   65.5834779  294.0634710  -0.5000   0.5000   0.5000   -1.5857211    1.5800902    1.5836067   1
    6  541.0879224   64.1486152  295.9041503  -0.5000   0.5000   0.5000   -1.5857211    1.5800902    1.5836067   1
    6  541.8841879   62.9526092  297.2179624  -0.5000   0.5000   0.5000   -1.5857211    1.5800902    1.5836067   1
    6  541.2598857   62.3957776  299.1569566  -0.5000   0.5000   0.5000   -1.5857211    1.5800902    1.5836067   1
    6  540.0658114   61.6639305  301.1368653  -0.5000   0.5000   0.5000   -1.5857211    1.5800902    1.5836067   1
    6  538.8158043   60.5052604  301.5465877  -0.5000   0.5000   0.5000   -1.5857211    1.5800902    1.5836067   1
    6  536.8212852   59.8314427  300.6653371  -0.5000   0.5000   0.5000   -1.5857211    1.5800902    1.5836067   1
    6  534.8474431   59.6399070  299.1609379  -0.5000   0.5000   0.5000   -1.5857211    1.5800902    1.5836067   1
    6  533.3465336   59.2980484  297.4084611  -0.5000   0.5000   0.5000   -1.5857211    1.5800902    1.5836067   1
    6  531.9456495   59.3902754  296.1609358  -0.5000   0.5000   0.5000   -1.5857211    1.5800902    1.5836067   1
    6  530.8820266   60.0872676  294.6428824  -0.5000   0.5000   0.5000   -1.5857211    1.5800902    1.5836067   1
    6  530.5311321   60.9584423  292.2666018  -0.5000   0.5000   0.5000   -1.5857211    1.5800902    1.5836067   1
    6  531.0606783   62.2271839  290.4075928  -0.5000   0.5000   0.5000   -1.5857211    1.5800902    1.5836067   1
    6  532.4464983   63.2122052  289.1445837  -0.5000   0.5000   0.5000   -1.5857211    1.5800902    1.5836067   1
    6  534.0422157   63.4717380  287.8031018  -0.5000   0.5000   0.5000   -1.5857211    1.5800902    1.5836067   1
    6  534.6216462   64.1575444  287.0424727  -0.5000   0.5000   0.5000   -1.5857211    1.5800902    1.5836067   1
    6  534.1824170   65.2344031  286.6645172  -0.5000   0.5000   0.5000   -1.5857211    1.5800902    1.5836067   1
    6  534.4894805   66.3457960  285.7525140  -0.5000   0.5000   0.5000   -1.5857211    1.5800902    1.5836067   1
    7  603.6519323   38.5106979  209.9782431  -0.5000   0.5000  -0.5000   -1.5815282    1.5842687   -1.5807997   1
    7  602.8666788   38.6952127  210.9454861  -0.5000   0.5000  -0.5000   -1.5815282    1.5842687   -1.5807997   1
    7  601.6521528   37.8601345  212.3133093  -0.5000   0.5000  -0.5000   -1.5815282    1.5842687   -1.5807997   1
    7  599.8977745   36.6250408  212.5948058  -0.5000   0.5000  -0.5000   -1.5815282    1.5842687   -1.5807997   1
    7  597.6631441   35.6643773  212.6826132  -0.5000   0.5000  -0.5000   -1.5815282    1.5842687   -1.5807997   1
    7  595.8472232   34.6734880  212.9295355  -0.5000   0.5000  -0.5000   -1.5815282    1.5842687   -1.5807997   1
    7  594.8983430   33.0267310  212.5582014  -0.5000   0.5000  -0.5000   -1.5815282    1.5842687   -1.5807997   1
    7  595.0941937   31.0794030  211.3972129  -0.5000   0.5000  -0.5000   -1.5815282    1.5842687   -1.5807997   1
    7  597.2643217   29.9581241  210.1896752  -0.5000   0.5000  -0.5000   -1.5815282    1.5842687   -1.5807997   1
    7  600.2703631   29.9988941  209.2415599  -0.5000   0.5000  -0.5000   -1.5815282    1.5842687   -1.5807997   1
    7  602.2507287   30.6628158  208.1640294  -0.5000   0.5000  -0.5000   -1.5815282    1.5842687   -1.5807997   1
    7  603.5327315   31.6361689  207.0176905  -0.5000   0.5000  -0.5000   -1.5815282    1.5842687   -1.5807997   1
    7  604.3118142   32.9346955  206.2365718  -0.5000   0.5000  -0.5000   -1.5815282    1.5842687   -1.5807997   1
    7  604.6073765   34.5271467  206.4979131  -0.5000   0.5000  -0.5000   -1.5815282    1.5842687   -1.5807997   1
    7  604.8013001   35.9183322  207.7873941  -0.5000   0.5000  -0.5000   -1.5815282    1.5842687   -1.5807997   1
    7  604.6202171   36.8649557  208.9342297  -0.5000   0.5000  -0.5000   -1.5815282    1.5842687   -1.5807997   1
    7  603.6519324   38.5106981  209.9782431  -0.5000   0.5000  -0.5000   -1.5815282    1.5842687   -1.5807997   1
    8  576.5844599  121.0082153  572.0616518  -0.5000   0.5000  -0.5000   -1.5815282    1.5842687   -1.5807997   1
    8  575.5472445  119.6685531  572.1400495  -0.5000   0.5000  -0.5000   -1.5815282    1.5842687   -1.5807997   1
    8  574.2650118  118.0125943  571.7599426  -0.5000   0.5000  -0.5000   -1.5815282    1.5842687   -1.5807997   1
    8  573.2936977  116.3221119  570.8240997  -0.5000   0.5000  -0.5000   -1.5815282    1.5842687   -1.5807997   1
    8  572.5400229  114.3533271  569.8771851  -0.5000   0.5000  -0.5000   -1.5815282    1.5842687   -1.5807997   1
    8  572.4370144  112.5991568  568.2489849  -0.5000   0.5000  -0.5000   -1.5815282    1.5842687   -1.5807997   1
    8  573.4060177  112.1840057  566.6176589  -0.5000   0.5000  -0.5000   -1.5815282    1.5842687   -1.5807997   1
    8  575.0956084  112.4073564  565.2935933  -0.5000   0.5000  -0.5000   -1.5815282    1.5842687   -1.5807997   1
    8  577.3680656  112.0671581  563.9681840  -0.5000   0.5000  -0.5000   -1.5815282    1.5842687   -1.5807997   1
    8  579.6140083  112.2943145  563.3701881  -0.5000   0.5000  -0.5000   -1.5815282    1.5842687   -1.5807997   1
    8  581.0367503  113.6301115  563.5973964  -0.5000   0.5000  -0.5000   -1.5815282    1.5842687   -1.5807997   1
    8  582.5344261  114.4659959  564.5188609  -0.5000   0.5000  -0.5000   -1.5815282    1.5842687   -1.5807997   1
    8  584.1423214  114.4075038  565.8483534  -0.5000   0.5000  -0.5000   -1.5815282    1.5842687   -1.5807997   1
    8  584.4695060  115.2339146  566.5248316  -0.5000   0.5000  -0.5000   -1.5815282    1.5842687   -1.5807997   1
    8  583.5716355  117.1580819  566.5620607  -0.5000   0.5000  -0.5000   -1.5815282    1.5842687   -1.5807997   1
    8  581.9131944  118.7128260  566.9494107  -0.5000   0.5000  -0.5000   -1.5815282    1.5842687   -1.5807997   1
    8  579.7833584  119.5565384  567.9954429  -0.5000   0.5000  -0.5000   -1.5815282    1.5842687   -1.5807997   1
    8  578.1239154  120.0570225  569.4262887  -0.5000   0.5000  -0.5000   -1.5815282    1.5842687   -1.5807997   1
    8  577.3817921  120.5851510  570.6992531  -0.5000   0.5000  -0.5000   -1.5815282    1.5842687   -1.5807997   1
    8  576.5844599  121.0082153  572.0616518  -0.5000   0.5000  -0.5000   -1.5815282    1.5842687   -1.5807997   1
    9   74.6447570  321.1918570  448.9234284   0.5000   0.5000  -0.5000    1.5829246    1.5843476   -1.5810203   0
    9   75.1722271  320.1653915  447.4920850   0.5000   0.5000  -0.5000    1.5829246    1.5843476   -1.5810203   0
    9   76.6307950  319.3998799  446.4165632   0.5000   0.5000  -0.5000    1.5829246    1.5843476   -1.5810203   0
    9   78.7160410  318.6011220  446.1572024   0.5000   0.5000  -0.5000    1.5829246    1.5843476   -1.5810203   0
    9   80.2505488  317.2578561  446.0613123   0.5000   0.5000  -0.5000    1.5829246    1.5843476   -1.5810203   0
    9   81.0556754  314.7620806  445.9407391   0.5000   0.5000  -0.5000    1.5829246    1.5843476   -1.5810203   0
    9   82.5692961  312.5971192  446.0335843   0.5000   0.5000  -0.5000    1.5829246    1.5843476   -1.5810203   0
    9   85.2625689  311.8280449  446.1559385   0.5000   0.5000  -0.5000    1.5829246    1.5843476   -1.5810203   0
    9   87.5711626  311.6412913  446.6125273   0.5000   0.5000  -0.5000    1.5829246    1.5843476   -1.5810203   0
    9   88.9554039  312.2523483  447.3048264   0.5000   0.5000  -0.5000    1.5829246    1.5843476   -1.5810203   0
    9   90.7128931  312.5621889  447.1737594   0.5000   0.5000  -0.5000    1.5829246    1.5843476   -1.5810203   0
    9   93.8249754  311.1942159  446.2592591   0.5000   0.5000  -0.5000    1.5829246    1.5843476   -1.5810203   0
   10   26.2868570  172.1184190  119.2166784  -0.5000  -0.5000  -0.5000   -1.5787317   -1.5801691   -1.5833862   1
   10   26.0045476  173.7785967  120.7640608  -0.5000  -0.5000  -0.5000   -1.5787317   -1.5801691   -1.5833862   1
   10   25.4811484  175.2382234  122.7011579  -0.5000  -0.5000  -0.5000   -1.5787317   -1.5801691   -1.5833862   1
   10   25.2459156  175.1898447  124.6502829  -0.5000  -0.5000  -0.5000   -1.5787317   -1.5801691   -1.5833862   1
   10   24.6099744  174.0474442  126.1787578  -0.5000  -0.5000  -0.5000   -1.5787317   -1.5801691   -1.5833862   1
   10   23.8515709  172.5848562  127.2057178  -0.5000  -0.5000  -0.5000   -1.5787317   -1.5801691   -1.5833862   1
   10   24.0007611  171.1895286  128.3590217  -0.5000  -0.5000  -0.5000   -1.5787317   -1.5801691   -1.5833862   1
   10   24.5216169  169.9263932  130.0122112  -0.5000  -0.5000  -0.5000   -1.5787317   -1.5801691   -1.5833862   1
   10   24.3109361  168.4120082  131.6305377  -0.5000  -0.5000  -0.5000   -1.5787317   -1.5801691   -1.5833862   1
   10   24.0499348  166.8854501  132.4461804  -0.5000  -0.5000  -0.5000   -1.5787317   -1.5801691   -1.5833862   1
   10   25.0232307  165.9392547  132.0140058  -0.5000  -0.5000  -0.5000   -1.5787317   -1.5801691   -1.5833862   1
   10   26.4810723  165.4114629  131.0437103  -0.5000  -0.5000  -0.5000   -1.5787317   -1.5801691   -1.5833862   1
   10   28.1707347  165.0363445  130.2579521  -0.5000  -0.5000  -0.5000   -1.5787317   -1.5801691   -1.5833862   1
   10   29.9823206  164.9147689  128.7818783  -0.5000  -0.5000  -0.5000   -1.5787317   -1.5801691   -1.5833862   1
   10   30.8833623  165.2775617  126.0568108  -0.5000  -0.5000  -0.5000   -1.5787317   -1.5801691   -1.5833862   1
   10   30.8831702  166.2646078  123.3561930  -0.5000  -0.5000  -0.5000   -1.5787317   -1.5801691   -1.5833862   1
   10   30.2335870  167.8425979  121.8503896  -0.5000  -0.5000  -0.5000   -1.5787317   -1.5801691   -1.5833862   1
   10   29.0841034  169.3620844  121.1858428  -0.5000  -0.5000  -0.5000   -1.5787317   -1.5801691   -1.5833862   1
   10   27.7202766  170.3388335  120.7471624  -0.5000  -0.5000  -0.5000   -1.5787317   -1.5801691   -1.5833862   1
   10   26.8195169  170.9130121  120.0565096  -0.5000  -0.5000  -0.5000   -1.5787317   -1.5801691   -1.5833862   1
   10   26.2868569  172.1184191  119.2166786  -0.5000  -0.5000  -0.5000   -1.5787317   -1.5801691   -1.5833862   1
   11  395.4325111  653.1207111  683.5939333   0.5000   0.5000  -0.5000    1.5829246    1.5843476   -1.5810203   0
   11  392.2171236  655.3157474  683.7088314   0.5000   0.5000  -0.5000    1.5829246    1.5843476   -1.5810203   0
   11  390.3286495  656.5159498  682.8395029   0.5000   0.5000  -0.5000    1.5829246    1.5843476   -1.5810203   0
   11  389.1509755  656.8124462  680.9569502   0.5000   0.5000  -0.5000    1.5829246    1.5843476   -1.5810203   0
   11  387.7152705  657.1012141  679.3284180   0.5000   0.5000  -0.5000    1.5829246    1.5843476   -1.5810203   0
   11  385.3817895  657.4973913  678.6936812   0.5000   0.5000  -0.5000    1.5829246    1.5843476   -1.5810203   0
   11  382.4515979  657.6980379  678.2021408   0.5000   0.5000  -0.5000    1.5829246    1.5843476   -1.5810203   0
   11  380.6008003  657.5924472  676.5027229   0.5000   0.5000  -0.5000    1.5829246    1.5843476   -1.5810203   0
   11  380.2820804  657.1974294  674.0003665   0.5000   0.5000  -0.5000    1.5829246    1.5843476   -1.5810203   0
   11  380.2724006  655.9011947  672.2838701   0.5000   0.5000  -0.5000    1.5829246    1.5843476   -1.5810203   0
   11  380.7792916  653.8146609  671.8606334   0.5000   0.5000  -0.5000    1.5829246    1.5843476   -1.5810203   0
   11  382.5645761  652.3749037  671.7093532   0.5000   0.5000  -0.5000    1.5829246    1.5843476   -1.5810203   0
   11  384.7224139  651.2800868  671.3207469   0.5000   0.5000  -0.5000    1.5829246    1.5843476   -1.5810203   0
   11  386.5552972  650.0418998  671.4055319   0.5000   0.5000  -0.5000    1.5829246    1.5843476   -1.5810203   0
   11  388.1159732  648.8573514  672.3133051   0.5000   0.5000  -0.5000    1.5829246    1.5843476   -1.5810203   0
   11  389.5472091  647.4279524  673.5103926   0.5000   0.5000  -0.5000    1.5829246    1.5843476   -1.5810203   0
   11  390.9127495  646.4076684  674.5206806   0.5000   0.5000  -0.5000    1.5829246    1.5843476   -1.5810203   0
   11  391.9464166  646.5570208  675.7407033   0.5000   0.5000  -0.5000    1.5829246    1.5843476   -1.5810203   0
   11  392.6701501  647.1202583  677.1153671   0.5000   0.5000  -0.5000    1.5829246    1.5843476   -1.5810203   0