ITEM: TIMESTEP
0
ITEM: NUMBER OF ATOMS
7814
ITEM: BOX BOUNDS pp pp pp 
0.0 695.663448
0.0 696.887575
0.0 697.929878
ITEM: ATOMS id x y z tbx tby tbz sbx sby sbz loop
    0  654.8539722  182.6659167  220.6576944   0.5000   0.5000   0.5000    1.5808043    1.5803810    1.5821914   0
    0  653.5348423  185.3314632  221.8709015   0.5000   0.5000   0.5000    1.5808043    1.5803810    1.5821914   0
    0  652.7713828  187.4109188  222.0349350   0.5000   0.5000   0.5000    1.5808043    1.5803810    1.5821914   0
    0  652.0806955  189.5667722  221.8905807   0.5000   0.5000   0.5000    1.5808043    1.5803810    1.5821914   0
    0  651.4356482  191.6909656  221.5163541   0.5000   0.5000   0.5000    1.5808043    1.5803810    1.5821914   0
    0  650.7216812  193.5748997  220.6738796   0.5000   0.5000   0.5000    1.5808043    1.5803810    1.5821914   0
    0  649.7089510  195.3470808  219.5477245   0.5000   0.5000   0.5000    1.5808043    1.5803810    1.5821914   0
    0  648.4302855  197.0723047  219.2055582   0.5000   0.5000   0.5000    1.5808043    1.5803810    1.5821914   0
    0  647.5303262  198.5041152  219.6740761   0.5000   0.5000   0.5000    1.5808043    1.5803810    1.5821914   0
    0  647.6431805  199.3795456  219.0952078   0.5000   0.5000   0.5000    1.5808043    1.5803810    1.5821914   0
    0  647.4390214  200.3473649  217.6272622   0.5000   0.5000   0.5000    1.5808043    1.5803810    1.5821914   0
    0  646.6450976  201.6946771  216.3750310   0.5000   0.5000   0.5000    1.5808043    1.5803810    1.5821914   0
    0  646.7801023  203.2261063  215.1606061   0.5000   0.5000   0.5000    1.5808043    1.5803810    1.5821914   0
    0  648.0299678  204.6821181  213.8845339   0.5000   0.5000   0.5000    1.5808043    1.5803810    1.5821914   0
    0  647.9604882  205.4034654  212.6598594   0.5000   0.5000   0.5000    1.5808043    1.5803810    1.5821914   0
    0  643.7174015  205.1723661  211.6296530   0.5000   0.5000   0.5000    1.5808043    1.5803810    1.5821914   0
    1  669.7336846  222.7388187  171.7999332  -0.5000  -0.5000  -0.5000   -1.5808043   -1.5803810   -1.5821914   1
    1  669.4471196  222.3164086  172.7667612  -0.5000  -0.5000  -0.5000   -1.5808043   -1.5803810   -1.5821914   1
    1  669.4666489  224.0096561  172.8748186  -0.5000  -0.5000  -0.5000   -1.5808043   -1.5803810   -1.5821914   1
    1  669.6686958  226.5553822  171.9426074  -0.5000  -0.5000  -0.5000   -1.5808043   -1.5803810   -1.5821914   1
    1  669.2249280  228.5337155  170.8820720  -0.5000  -0.5000  -0.5000   -1.5808043   -1.5803810   -1.5821914   1
    1  668.0788021  229.8969325  169.3341993  -0.5000  -0.5000  -0.5000   -1.5808043   -1.5803810   -1.5821914   1
    1  666.6730479  231.4059774  167.7307476  -0.5000  -0.5000  -0.5000   -1.5808043   -1.5803810   -1.5821914   1
    1  664.3080978  232.4880460  167.2984217  -0.5000  -0.5000  -0.5000   -1.5808043   -1.5803810   -1.5821914   1
    1  661.9874672  232.5941814  168.2979616  -0.5000  -0.5000  -0.5000   -1.5808043   -1.5803810   -1.5821914   1
    1  660.7289705  232.8612104  170.0521444  -0.5000  -0.5000  -0.5000   -1.5808043   -1.5803810   -1.5821914   1
    1  659.2313670  233.5785867  171.4783373  -0.5000  -0.5000  -0.5000   -1.5808043   -1.5803810   -1.5821914   1
    1  657.4125216  233.7331553  172.8444533  -0.5000  -0.5000  -0.5000   -1.5808043   -1.5803810   -1.5821914   1
    1  655.9886326  233.6273593  174.1478373  -0.5000  -0.5000  -0.5000   -1.5808043   -1.5803810   -1.5821914   1
    1  655.1893684  234.4405278  174.0480542  -0.5000  -0.5000  -0.5000   -1.5808043   -1.5803810   -1.5821914   1
    1  654.5096220  236.0851653  172.6484987  -0.5000  -0.5000  -0.5000   -1.5808043   -1.5803810   -1.5821914   1
    1  653.4165855  238.4388501  171.8910813  -0.5000  -0.5000  -0.5000   -1.5808043   -1.5803810   -1.5821914   1
    1  653.1069320  241.1526733  172.5897645  -0.5000  -0.5000  -0.5000   -1.5808043   -1.5803810   -1.5821914   1
    1  653.0605748  241.8451951  173.1559892  -0.5000  -0.5000  -0.5000   -1.5808043   -1.5803810   -1.5821914   1
    1  651.6317878  240.3159427  172.8911035  -0.5000  -0.5000  -0.5000   -1.5808043   -1.5803810   -1.5821914   1
    1  649.4310186  239.6594167  173.2819560  -0.5000  -0.5000  -0.5000   -1.5808043   -1.5803810   -1.5821914   1
    1  647.0198441  240.1639778  174.4192352  -0.5000  -0.5000  -0.5000   -1.5808043   -1.5803810   -1.5821914   1
    1  644.9039412  240.1385863  175.4476498  -0.5000  -0.5000  -0.5000   -1.5808043   -1.5803810   -1.5821914   1
    1  643.1733815  239.8519590  176.5026644  -0.5000  -0.5000  -0.5000   -1.5808043   -1.5803810   -1.5821914   1
    1  640.7858206  240.1497090  177.3352872  -0.5000  -0.5000  -0.5000   -1.5808043   -1.5803810   -1.5821914   1
    1  638.5238955  240.5279413  178.3516736  -0.5000  -0.5000  -0.5000   -1.5808043   -1.5803810   -1.5821914   1
    1  636.9025276  240.4963628  179.8668539  -0.5000  -0.5000  -0.5000   -1.5808043   -1.5803810   -1.5821914   1
    1  634.9507101  240.2803806  181.3451680  -0.5000  -0.5000  -0.5000   -1.5808043   -1.5803810   -1.5821914   1
    1  632.7103322  239.8945724  182.7990934  -0.5000  -0.5000  -0.5000   -1.5808043   -1.5803810   -1.5821914   1
    1  631.0065463  239.7743489  184.5963794  -0.5000  -0.5000  -0.5000   -1.5808043   -1.5803810   -1.5821914   1
    1  630.5761442  239.2017718  186.7571670  -0.5000  -0.5000  -0.5000   -1.5808043   -1.5803810   -1.5821914   1
    1  630.9385565  237.1554339  188.1800985  -0.5000  -0.5000  -0.5000   -1.5808043   -1.5803810   -1.5821914   1
    1  631.6360041  235.0543337  188.9902425  -0.5000  -0.5000  -0.5000   -1.5808043   -1.5803810   -1.5821914   1
    1  632.9046621  233.8594590  189.4182578  -0.5000  -0.5000  -0.5000   -1.5808043   -1.5803810   -1.5821914   1
    1  634.8792139  233.0434589  188.8943193  -0.5000  -0.5000  -0.5000   -1.5808043   -1.5803810   -1.5821914   1
    1  637.1530835  232.3291739  188.8679614  -0.5000  -0.5000  -0.5000   -1.5808043   -1.5803810   -1.5821914   1
    1  638.8906988  231.3494349  190.1005900  -0.5000  -0.5000  -0.5000   -1.5808043   -1.5803810   -1.5821914   1
    1  640.5502919  230.0929017  191.1038855  -0.5000  -0.5000  -0.5000   -1.5808043   -1.5803810   -1.5821914   1
    1  642.5884229  229.0053832  191.3433986  -0.5000  -0.5000  -0.5000   -1.5808043   -1.5803810   -1.5821914   1
    1  644.3719368  227.6913985  191.6045099  -0.5000  -0.5000  -0.5000   -1.5808043   -1.5803810   -1.5821914   1
    1  646.0592028  226.3190243  192.6013112  -0.5000  -0.5000  -0.5000   -1.5808043   -1.5803810   -1.5821914   1
    1  648.1221601  225.8347822  193.9925856  -0.5000  -0.5000  -0.5000   -1.5808043   -1.5803810   -1.5821914   1
    1  650.3720852  225.7200830  194.3184189  -0.5000  -0.5000  -0.5000   -1.5808043   -1.5803810   -1.5821914   1
    1  652.4141489  225.5029964  193.1845462  -0.5000  -0.5000  -0.5000   -1.5808043   -1.5803810   -1.5821914   1
    1  653.6652713  225.6885013  191.1987330  -0.5000  -0.5000  -0.5000   -1.5808043   -1.5803810   -1.5821914   1
    1  654.3346089  226.0296400  188.7483434  -0.5000  -0.5000  -0.5000   -1.5808043   -1.5803810   -1.5821914   1
    1  654.7883691  226.3777453  186.4225049  -0.5000  -0.5000  -0.5000   -1.5808043   -1.5803810   -1.5821914   1
    1  654.7613277  226.9830268  184.7741867  -0.5000  -0.5000  -0.5000   -1.5808043   -1.5803810   -1.5821914   1
    1  655.1653280  227.5264619  183.4300731  -0.5000  -0.5000  -0.5000   -1.5808043   -1.5803810   -1.5821914   1
    1  656.6421704  228.0910961  181.9446111  -0.5000  -0.5000  -0.5000   -1.5808043   -1.5803810   -1.5821914   1
    1  657.8202409  228.4950349  180.4495107  -0.5000  -0.5000  -0.5000   -1.5808043   -1.5803810   -1.5821914   1
    1  658.4310737  227.9383742  179.0773398  -0.5000  -0.5000  -0.5000   -1.5808043   -1.5803810   -1.5821914   1
    1  659.5456266  226.7015541  178.2374521  -0.5000  -0.5000  -0.5000   -1.5808043   -1.5803810   -1.5821914   1
    1  661.3667255  225.6058671  177.9023142  -0.5000  -0.5000  -0.5000   -1.5808043   -1.5803810   -1.5821914   1
    1  663.5237806  225.0338856  177.2059018  -0.5000  -0.5000  -0.5000   -1.5808043   -1.5803810   -1.5821914   1
    1  665.0989122  224.6048337  175.7504876  -0.5000  -0.5000  -0.5000   -1.5808043   -1.5803810   -1.5821914   1
    1  666.0003249  224.5575955  174.2201411  -0.5000  -0.5000  -0.5000   -1.5808043   -1.5803810   -1.5821914   1
    1  667.3073412  224.4987445  173.0200297  -0.5000  -0.5000  -0.5000   -1.5808043   -1.5803810   -1.5821914   1
    1  669.7336845  222.7388186  171.7999334  -0.5000  -0.5000  -0.5000   -1.5808043   -1.5803810   -1.5821914   1
    2  615.8462857  215.3934285   38.7405001   0.5000   0.5000   0.5000    1.5808043    1.5803810    1.5821914   0
    2  614.1107082  216.8555268   38.1541983   0.5000   0.5000   0.5000    1.5808043    1.5803810    1.5821914   0
    2  611.8654973  217.2436112   38.5684727   0.5000   0.5000   0.5000    1.5808043    1.5803810    1.5821914   0
    2  609.2324365  217.6910203   38.9772108   0.5000   0.5000   0.5000    1.5808043    1.5803810    1.5821914   0
    2  606.4892404  218.5472688   39.3041059   0.5000   0.5000   0.5000    1.5808043    1.5803810    1.5821914   0
    2  604.5024074  219.7406231   40.0862480   0.5000   0.5000   0.5000    1.5808043    1.5803810    1.5821914   0
    2  603.3307536  221.3077630   41.0685606   0.5000   0.5000   0.5000    1.5808043    1.5803810    1.5821914   0
    2  602.0387820  222.9784767   41.8660002   0.5000   0.5000   0.5000    1.5808043    1.5803810    1.5821914   0
    2  600.8919707  224.6160242   41.7938275   0.5000   0.5000   0.5000    1.5808043    1.5803810    1.5821914   0
    2  600.2150904  226.5689524   40.8938393   0.5000   0.5000   0.5000    1.5808043    1.5803810    1.5821914   0
    2  599.7313581  228.8955112   40.0265376   0.5000   0.5000   0.5000    1.5808043    1.5803810    1.5821914   0
    2  600.1105906  230.8628538   39.1838040   0.5000   0.5000   0.5000    1.5808043    1.5803810    1.5821914   0
    2  601.4204904  232.1116061   38.3654738   0.5000   0.5000   0.5000    1.5808043    1.5803810    1.5821914   0
    2  602.3973076  233.2203282   37.6761826   0.5000   0.5000   0.5000    1.5808043    1.5803810    1.5821914   0
    2  602.7121483  235.0559070   36.8067761   0.5000   0.5000   0.5000    1.5808043    1.5803810    1.5821914   0
    2  603.4723663  237.3239808   35.7617900   0.5000   0.5000   0.5000    1.5808043    1.5803810    1.5821914   0
    2  604.9229021  238.6524708   34.5488606   0.5000   0.5000   0.5000    1.5808043    1.5803810    1.5821914   0
    2  606.5460866  238.2306355   33.6292797   0.5000   0.5000   0.5000    1.5808043    1.5803810    1.5821914   0
    2  608.8836853  237.3946287   33.5941018   0.5000   0.5000   0.5000    1.5808043    1.5803810    1.5821914   0
    2  611.8007131  237.3767091   33.9258231   0.5000   0.5000   0.5000    1.5808043    1.5803810    1.5821914   0
    2  613.1530842  236.9593802   33.9822936   0.5000   0.5000   0.5000    1.5808043    1.5803810    1.5821914   0
    2  612.3725407  235.5694890   34.0019802   0.5000   0.5000   0.5000    1.5808043    1.5803810    1.5821914   0
    2  611.3516295  234.0267634   34.6257886   0.5000   0.5000   0.5000    1.5808043    1.5803810    1.5821914   0
    2  610.8833377  232.1904629   35.8130883   0.5000   0.5000   0.5000    1.5808043    1.5803810    1.5821914   0
    2  611.1904364  229.9057549   36.6494746   0.5000   0.5000   0.5000    1.5808043    1.5803810    1.5821914   0
    2  612.6412850  227.9511330   36.7726111   0.5000   0.5000   0.5000    1.5808043    1.5803810    1.5821914   0
    2  614.3615230  225.9996778   36.7726917   0.5000   0.5000   0.5000    1.5808043    1.5803810    1.5821914   0
    2  615.5936156  224.0526469   37.1893374   0.5000   0.5000   0.5000    1.5808043    1.5803810    1.5821914   0
    2  616.9530247  222.9800763   38.1944400   0.5000   0.5000   0.5000    1.5808043    1.5803810    1.5821914   0
    2  618.8130715  222.2748572   39.6283857   0.5000   0.5000   0.5000    1.5808043    1.5803810    1.5821914   0
    3  553.9819222  241.9280222   45.5633778  -0.0000  -0.0000  -1.0000    0.0011532    0.0037019   -3.1641497   0
    3  554.7383496  242.7361123   42.8075571  -0.0000  -0.0000  -1.0000    0.0011532    0.0037019   -3.1641497   0
    3  556.2825513  243.1190326   41.0895607  -0.0000  -0.0000  -1.0000    0.0011532    0.0037019   -3.1641497   0
    3  558.3633462  242.4069235   40.4949989  -0.0000  -0.0000  -1.0000    0.0011532    0.0037019   -3.1641497   0
    3  560.2981084  241.0730160   39.9220526  -0.0000  -0.0000  -1.0000    0.0011532    0.0037019   -3.1641497   0
    3  561.9702557  239.8860510   39.1854845  -0.0000  -0.0000  -1.0000    0.0011532    0.0037019   -3.1641497   0
    3  563.6351269  238.8494015   38.4542868  -0.0000  -0.0000  -1.0000    0.0011532    0.0037019   -3.1641497   0
    3  565.4482538  237.7887224   37.2218071  -0.0000  -0.0000  -1.0000    0.0011532    0.0037019   -3.1641497   0
    3  567.3186103  236.5926168   35.7882398  -0.0000  -0.0000  -1.0000    0.0011532    0.0037019   -3.1641497   0
    3  568.9361641  235.3524818   34.7674046  -0.0000  -0.0000  -1.0000    0.0011532    0.0037019   -3.1641497   0
    3  570.3405787  234.6147619   33.7256361  -0.0000  -0.0000  -1.0000    0.0011532    0.0037019   -3.1641497   0
    3  571.8197312  234.5503096   32.1896271  -0.0000  -0.0000  -1.0000    0.0011532    0.0037019   -3.1641497   0
    3  573.4689127  234.7201825   30.3619461  -0.0000  -0.0000  -1.0000    0.0011532    0.0037019   -3.1641497   0
    4  466.6764259   57.7198133  152.8047252  -0.5000   0.5000  -0.5000   -1.5822107    1.5838148   -1.5798567   1
    4  467.0106715   58.9279506  153.3270726  -0.5000   0.5000  -0.5000   -1.5822107    1.5838148   -1.5798567   1
    4  468.0705456   59.8863507  154.5324735  -0.5000   0.5000  -0.5000   -1.5822107    1.5838148   -1.5798567   1
    4  468.6874528   60.2645365  156.2653177  -0.5000   0.5000  -0.5000   -1.5822107    1.5838148   -1.5798567   1
    4  468.8343937   60.5756827  158.5374246  -0.5000   0.5000  -0.5000   -1.5822107    1.5838148   -1.5798567   1
    4  468.8258320   60.3860149  161.4648746  -0.5000   0.5000  -0.5000   -1.5822107    1.5838148   -1.5798567   1
    4  468.1013075   59.5836187  163.5012060  -0.5000   0.5000  -0.5000   -1.5822107    1.5838148   -1.5798567   1
    4  466.1863683   58.6876848  163.5526451  -0.5000   0.5000  -0.5000   -1.5822107    1.5838148   -1.5798567   1
    4  464.2788172   57.8934658  162.3661153  -0.5000   0.5000  -0.5000   -1.5822107    1.5838148   -1.5798567   1
    4  463.4112409   57.1343236  160.5824127  -0.5000   0.5000  -0.5000   -1.5822107    1.5838148   -1.5798567   1
    4  462.9235363   56.1356569  159.1431014  -0.5000   0.5000  -0.5000   -1.5822107    1.5838148   -1.5798567   1
    4  462.7307711   54.9230051  157.9444548  -0.5000   0.5000  -0.5000   -1.5822107    1.5838148   -1.5798567   1
    4  463.0893551   54.8201073  155.9527207  -0.5000   0.5000  -0.5000   -1.5822107    1.5838148   -1.5798567   1
    4  463.9586138   55.8608450  154.0790238  -0.5000   0.5000  -0.5000   -1.5822107    1.5838148   -1.5798567   1
    4  465.1382825   56.6562696  153.2483499  -0.5000   0.5000  -0.5000   -1.5822107    1.5838148   -1.5798567   1
    4  466.6764258   57.7198134  152.8047252  -0.5000   0.5000  -0.5000   -1.5822107    1.5838148   -1.5798567   1
    5  297.6065352   24.6536136  387.4309887   0.5000  -0.5000   0.5000    1.5822107   -1.5838148    1.5798567   0
    5  297.2361470   24.0893146  391.7871333   0.5000  -0.5000   0.5000    1.5822107   -1.5838148    1.5798567   0
    5  297.8544266   24.5367927  393.8750850   0.5000  -0.5000   0.5000    1.5822107   -1.5838148    1.5798567   0
    5  298.8740796   25.0869662  395.4600793   0.5000  -0.5000   0.5000    1.5822107   -1.5838148    1.5798567   0
    5  300.7477027   24.9332954  396.7347497   0.5000  -0.5000   0.5000    1.5822107   -1.5838148    1.5798567   0
    5  303.0052957   25.3267460  396.8872983   0.5000  -0.5000   0.5000    1.5822107   -1.5838148    1.5798567   0
    5  304.4896652   26.5016633  397.2485975   0.5000  -0.5000   0.5000    1.5822107   -1.5838148    1.5798567   0
    5  306.0216332   27.1061955  397.9434301   0.5000  -0.5000   0.5000    1.5822107   -1.5838148    1.5798567   0
    5  308.0643860   27.2600701  398.6175032   0.5000  -0.5000   0.5000    1.5822107   -1.5838148    1.5798567   0
    5  309.7313424   27.4117288  399.7880217   0.5000  -0.5000   0.5000    1.5822107   -1.5838148    1.5798567   0
    5  311.0927342   27.6413179  401.3102834   0.5000  -0.5000   0.5000    1.5822107   -1.5838148    1.5798567   0
    5  312.2850775   28.4724052  403.1228296   0.5000  -0.5000   0.5000    1.5822107   -1.5838148    1.5798567   0
    5  313.4220044   29.2304909  404.1917629   0.5000  -0.5000   0.5000    1.5822107   -1.5838148    1.5798567   0
    5  315.1869389   29.0649283  404.0247165   0.5000  -0.5000   0.5000    1.5822107   -1.5838148    1.5798567   0
    5  317.1827870   28.5481469  404.4291420   0.5000  -0.5000   0.5000    1.5822107   -1.5838148    1.5798567   0
    5  319.5172368   28.4863353  405.4212096   0.5000  -0.5000   0.5000    1.5822107   -1.5838148    1.5798567   0
    5  322.7287429   28.7368351  405.7467845   0.5000  -0.5000   0.5000    1.5822107   -1.5838148    1.5798567   0
    5  326.2476316   28.8474485  406.0105332   0.5000  -0.5000   0.5000    1.5822107   -1.5838148    1.5798567   0
    5  328.8276035   28.7490405  406.8519947   0.5000  -0.5000   0.5000    1.5822107   -1.5838148    1.5798567   0
    5  329.5632746   28.6774176  406.5972573   0.5000  -0.5000   0.5000    1.5822107   -1.5838148    1.5798567   0
    5  329.8665861   28.4894673  404.5560664   0.5000  -0.5000   0.5000    1.5822107   -1.5838148    1.5798567   0
    5  331.0602397   27.7586390  402.6297635   0.5000  -0.5000   0.5000    1.5822107   -1.5838148    1.5798567   0
    5  333.2877042   27.1796158  401.5372289   0.5000  -0.5000   0.5000    1.5822107   -1.5838148    1.5798567   0
    5  336.1764483   27.3282152  400.9044560   0.5000  -0.5000   0.5000    1.5822107   -1.5838148    1.5798567   0
    5  338.5320965   27.6284826  401.0371247   0.5000  -0.5000   0.5000    1.5822107   -1.5838148    1.5798567   0
    5  340.3811859   27.9842474  401.9537548   0.5000  -0.5000   0.5000    1.5822107   -1.5838148    1.5798567   0
    5  342.3690227   28.5063634  402.6908398   0.5000  -0.5000   0.5000    1.5822107   -1.5838148    1.5798567   0
    5  344.5816098   28.5111778  403.3608519   0.5000  -0.5000   0.5000    1.5822107   -1.5838148    1.5798567   0
    5  346.2584293   28.1228900  404.8483915   0.5000  -0.5000   0.5000    1.5822107   -1.5838148    1.5798567   0
    5  346.7832658   28.3607178  407.0592060   0.5000  -0.5000   0.5000    1.5822107   -1.5838148    1.5798567   0
    5  347.2200570   29.1456905  408.9767960   0.5000  -0.5000   0.5000    1.5822107   -1.5838148    1.5798567   0
    5  348.2194461   29.9608591  409.6768290   0.5000  -0.5000   0.5000    1.5822107   -1.5838148    1.5798567   0
    5  349.1115610   30.5686223  410.3087973   0.5000  -0.5000   0.5000    1.5822107   -1.5838148    1.5798567   0
    5  349.9812805   30.2787255  411.8708370   0.5000  -0.5000   0.5000    1.5822107   -1.5838148    1.5798567   0
    5  350.6340503   29.1507864  413.3203108   0.5000  -0.5000   0.5000    1.5822107   -1.5838148    1.5798567   0
    5  350.1888699   28.2846828  414.4888291   0.5000  -0.5000   0.5000    1.5822107   -1.5838148    1.5798567   0
    5  349.3825906   27.9351740  416.1730840   0.5000  -0.5000   0.5000    1.5822107   -1.5838148    1.5798567   0
    5  348.5523641   27.6259181  417.6984678   0.5000  -0.5000   0.5000    1.5822107   -1.5838148    1.5798567   0
    5  347.0854539   27.8812241  418.9765268   0.5000  -0.5000   0.5000    1.5822107   -1.5838148    1.5798567   0
    5  346.1136011   28.2110389  421.0622377   0.5000  -0.5000   0.5000    1.5822107   -1.5838148    1.5798567   0
    5  346.0964381   27.2278591  423.3964506   0.5000  -0.5000   0.5000    1.5822107   -1.5838148    1.5798567   0
    5  345.1522878   25.8281058  424.6114894   0.5000  -0.5000   0.5000    1.5822107   -1.5838148    1.5798567   0
    5  343.6521798   25.3310211  424.9824122   0.5000  -0.5000   0.5000    1.5822107   -1.5838148    1.5798567   0
    5  343.3225218   25.6509437  426.1566535   0.5000  -0.5000   0.5000    1.5822107   -1.5838148    1.5798567   0
    5  343.6810075   25.8242439  428.2653690   0.5000  -0.5000   0.5000    1.5822107   -1.5838148    1.5798567   0
    5  343.9964482   25.8794965  430.1807944   0.5000  -0.5000   0.5000    1.5822107   -1.5838148    1.5798567   0
    5  344.0914018   26.6882108  431.6343824   0.5000  -0.5000   0.5000    1.5822107   -1.5838148    1.5798567   0
    5  344.6778449   27.8720275  432.8022831   0.5000  -0.5000   0.5000    1.5822107   -1.5838148    1.5798567   0
    5  346.4609886   28.9368405  433.5271871   0.5000  -0.5000   0.5000    1.5822107   -1.5838148    1.5798567   0
    5  348.5168826   29.5707545  434.0615595   0.5000  -0.5000   0.5000    1.5822107   -1.5838148    1.5798567   0
    5  350.2833562   29.8211576  434.5344648   0.5000  -0.5000   0.5000    1.5822107   -1.5838148    1.5798567   0
    5  352.2220423   30.1010072  434.6788122   0.5000  -0.5000   0.5000    1.5822107   -1.5838148    1.5798567   0
    5  354.6392700   30.4504556  434.7794299   0.5000  -0.5000   0.5000    1.5822107   -1.5838148    1.5798567   0
    5  357.7797245   30.7480998  434.9041622   0.5000  -0.5000   0.5000    1.5822107   -1.5838148    1.5798567   0
    5  361.0098142   30.9315530  434.9277655   0.5000  -0.5000   0.5000    1.5822107   -1.5838148    1.5798567   0
    5  363.2487977   31.4585971  434.6226268   0.5000  -0.5000   0.5000    1.5822107   -1.5838148    1.5798567   0
    5  364.8421159   31.8437302  434.0535345   0.5000  -0.5000   0.5000    1.5822107   -1.5838148    1.5798567   0
    5  366.2095799   31.6478897  434.5250009   0.5000  -0.5000   0.5000    1.5822107   -1.5838148    1.5798567   0
    5  367.0134481   31.7185841  436.5220042   0.5000  -0.5000   0.5000    1.5822107   -1.5838148    1.5798567   0
    5  368.1007822   32.0950226  438.7750899   0.5000  -0.5000   0.5000    1.5822107   -1.5838148    1.5798567   0
    5  369.6103503   32.4480779  440.9161567   0.5000  -0.5000   0.5000    1.5822107   -1.5838148    1.5798567   0
    5  370.3783020   33.3212934  443.1490290   0.5000  -0.5000   0.5000    1.5822107   -1.5838148    1.5798567   0
    5  370.8516993   34.6061208  444.8943274   0.5000  -0.5000   0.5000    1.5822107   -1.5838148    1.5798567   0
    5  371.7225818   35.7814770  446.0697131   0.5000  -0.5000   0.5000    1.5822107   -1.5838148    1.5798567   0
    5  373.4491408   37.1856822  446.6709686   0.5000  -0.5000   0.5000    1.5822107   -1.5838148    1.5798567   0
    5  376.0813857   38.4553712  446.7727711   0.5000  -0.5000   0.5000    1.5822107   -1.5838148    1.5798567   0
    5  378.1462522   38.9403762  447.3494974   0.5000  -0.5000   0.5000    1.5822107   -1.5838148    1.5798567   0
    5  379.1205896   39.0879327  448.7858934   0.5000  -0.5000   0.5000    1.5822107   -1.5838148    1.5798567   0
    5  379.5554503   39.1289104  450.9636270   0.5000  -0.5000   0.5000    1.5822107   -1.5838148    1.5798567   0
    5  379.9629628   39.1295497  453.3591351   0.5000  -0.5000   0.5000    1.5822107   -1.5838148    1.5798567   0
    5  380.6660880   40.0929694  454.9889381   0.5000  -0.5000   0.5000    1.5822107   -1.5838148    1.5798567   0
    5  381.4796923   41.2566745  456.3208447   0.5000  -0.5000   0.5000    1.5822107   -1.5838148    1.5798567   0
    5  382.4393504   41.1533741  457.9590838   0.5000  -0.5000   0.5000    1.5822107   -1.5838148    1.5798567   0
    5  382.7233454   40.6010259  459.6465092   0.5000  -0.5000   0.5000    1.5822107   -1.5838148    1.5798567   0
    5  381.5328081   40.1359054  461.3178841   0.5000  -0.5000   0.5000    1.5822107   -1.5838148    1.5798567   0
    5  379.8816065   39.2535090  463.0623033   0.5000  -0.5000   0.5000    1.5822107   -1.5838148    1.5798567   0
    5  378.2919392   38.1704987  464.9564202   0.5000  -0.5000   0.5000    1.5822107   -1.5838148    1.5798567   0
    5  376.9150008   37.6185987  466.9323121   0.5000  -0.5000   0.5000    1.5822107   -1.5838148    1.5798567   0
    5  376.4731514   37.5951672  469.3978777   0.5000  -0.5000   0.5000    1.5822107   -1.5838148    1.5798567   0
    5  376.8386214   37.9590753  472.0609714   0.5000  -0.5000   0.5000    1.5822107   -1.5838148    1.5798567   0
    5  377.4314469   38.6739354  473.9536575   0.5000  -0.5000   0.5000    1.5822107   -1.5838148    1.5798567   0
    5  378.2296864   39.3096545  475.4293032   0.5000  -0.5000   0.5000    1.5822107   -1.5838148    1.5798567   0
    5  379.2832297   39.8634887  476.8940473   0.5000  -0.5000   0.5000    1.5822107   -1.5838148    1.5798567   0
    5  380.2686262   40.5700756  478.3061076   0.5000  -0.5000   0.5000    1.5822107   -1.5838148    1.5798567   0
    5  380.6449509   41.1579969  479.8542267   0.5000  -0.5000   0.5000    1.5822107   -1.5838148    1.5798567   0
    5  380.5813878   40.9928140  481.7629372   0.5000  -0.5000   0.5000    1.5822107   -1.5838148    1.5798567   0
    5  380.8521757   40.5916693  484.0684894   0.5000  -0.5000   0.5000    1.5822107   -1.5838148    1.5798567   0
    5  381.3441732   41.4288713  486.2441589   0.5000  -0.5000   0.5000    1.5822107   -1.5838148    1.5798567   0
    5  382.2371112   42.7157707  488.0479897   0.5000  -0.5000   0.5000    1.5822107   -1.5838148    1.5798567   0
    5  383.3315152   43.0363308  489.8265046   0.5000  -0.5000   0.5000    1.5822107   -1.5838148    1.5798567   0
    5  383.6376854   42.8170663  491.5871630   0.5000  -0.5000   0.5000    1.5822107   -1.5838148    1.5798567   0
    5  383.4198380   42.4867342  493.4515103   0.5000  -0.5000   0.5000    1.5822107   -1.5838148    1.5798567   0
    5  383.2021840   42.3139863  495.9715908   0.5000  -0.5000   0.5000    1.5822107   -1.5838148    1.5798567   0
    5  383.0555740   42.2761944  499.1155457   0.5000  -0.5000   0.5000    1.5822107   -1.5838148    1.5798567   0
    5  382.9287017   42.2156860  502.7808869   0.5000  -0.5000   0.5000    1.5822107   -1.5838148    1.5798567   0
    5  382.7344617   42.0701639  505.8089358   0.5000  -0.5000   0.5000    1.5822107   -1.5838148    1.5798567   0
    5  382.6208612   42.0721235  507.4588415   0.5000  -0.5000   0.5000    1.5822107   -1.5838148    1.5798567   0
    5  382.8576180   42.9983288  509.5810069   0.5000  -0.5000   0.5000    1.5822107   -1.5838148    1.5798567   0
    6   81.6761286  282.6070714  295.8687144   0.5000   0.5000   0.5000    1.5808043    1.5803810    1.5821914   0
    6   83.8791930  282.0620821  296.3467850   0.5000   0.5000   0.5000    1.5808043    1.5803810    1.5821914   0
    6   85.4011894  280.8512100  295.7459226   0.5000   0.5000   0.5000    1.5808043    1.5803810    1.5821914   0
    6   85.8916190  279.6927597  296.0516736   0.5000   0.5000   0.5000    1.5808043    1.5803810    1.5821914   0
    6   86.0090063  278.9648797  297.4887837   0.5000   0.5000   0.5000    1.5808043    1.5803810    1.5821914   0
    6   85.6540064  278.0356770  299.3078803   0.5000   0.5000   0.5000    1.5808043    1.5803810    1.5821914   0
    6   84.5319472  276.4536910  301.7089186   0.5000   0.5000   0.5000    1.5808043    1.5803810    1.5821914   0
    6   83.6376506  275.0997045  303.7400439   0.5000   0.5000   0.5000    1.5808043    1.5803810    1.5821914   0
    6   83.2402719  275.3907570  303.6716313   0.5000   0.5000   0.5000    1.5808043    1.5803810    1.5821914   0
    6   83.3809213  277.0891027  302.3400117   0.5000   0.5000   0.5000    1.5808043    1.5803810    1.5821914   0
    6   83.3254080  279.0804460  301.4274164   0.5000   0.5000   0.5000    1.5808043    1.5803810    1.5821914   0
    6   82.3193323  280.3970256  300.6605573   0.5000   0.5000   0.5000    1.5808043    1.5803810    1.5821914   0
    6   81.2869470  280.7391143  300.1024949   0.5000   0.5000   0.5000    1.5808043    1.5803810    1.5821914   0
    6   80.6301414  281.3980612  300.2362229   0.5000   0.5000   0.5000    1.5808043    1.5803810    1.5821914   0
    6   80.1468071  282.9387142  300.3552858   0.5000   0.5000   0.5000    1.5808043    1.5803810    1.5821914   0
    7   73.4203784  257.8182936  135.4197194  -0.5000  -0.5000  -0.5000   -1.5808043   -1.5803810   -1.5821914   1
    7   72.9846495  260.1934336  135.4773348  -0.5000  -0.5000  -0.5000   -1.5808043   -1.5803810   -1.5821914   1
    7   71.5388300  261.7847877  136.1219395  -0.5000  -0.5000  -0.5000   -1.5808043   -1.5803810   -1.5821914   1
    7   69.7143575  262.3859436  137.8061813  -0.5000  -0.5000  -0.5000   -1.5808043   -1.5803810   -1.5821914   1
    7   68.4884648  262.7091849  139.3804493  -0.5000  -0.5000  -0.5000   -1.5808043   -1.5803810   -1.5821914   1
    7   67.7458261  261.8276695  140.8671105  -0.5000  -0.5000  -0.5000   -1.5808043   -1.5803810   -1.5821914   1
    7   67.4697804  260.1311688  142.4677650  -0.5000  -0.5000  -0.5000   -1.5808043   -1.5803810   -1.5821914   1
    7   67.5154491  258.2095423  143.4108590  -0.5000  -0.5000  -0.5000   -1.5808043   -1.5803810   -1.5821914   1
    7   67.0622241  256.3514860  144.0245772  -0.5000  -0.5000  -0.5000   -1.5808043   -1.5803810   -1.5821914   1
    7   67.0754743  255.2076690  145.0669893  -0.5000  -0.5000  -0.5000   -1.5808043   -1.5803810   -1.5821914   1
    7   68.5262410  254.3294802  145.8942217  -0.5000  -0.5000  -0.5000   -1.5808043   -1.5803810   -1.5821914   1
    7   70.2806039  253.0587757  145.6763153  -0.5000  -0.5000  -0.5000   -1.5808043   -1.5803810   -1.5821914   1
    7   71.5072167  251.0539265  144.7192926  -0.5000  -0.5000  -0.5000   -1.5808043   -1.5803810   -1.5821914   1