ITEM: TIMESTEP
0
ITEM: NUMBER OF ATOMS
16491
ITEM: BOX BOUNDS pp pp pp 
0.0 696.766270
0.0 696.746142
0.0 696.806307
ITEM: ATOMS id x y z tbx tby tbz sbx sby sbz loop
    0  228.6848438  626.4174152  367.6736785   0.5000  -0.5000  -0.5000    1.5825038   -1.5825346   -1.5825541   0
    0  225.4717163  627.8400565  367.2744662   0.5000  -0.5000  -0.5000    1.5825038   -1.5825346   -1.5825541   0
    0  223.5348093  629.2347930  366.6838619   0.5000  -0.5000  -0.5000    1.5825038   -1.5825346   -1.5825541   0
    0  222.1383031  630.8170474  366.4363737   0.5000  -0.5000  -0.5000    1.5825038   -1.5825346   -1.5825541   0
    0  221.0711299  632.9593161  366.2413822   0.5000  -0.5000  -0.5000    1.5825038   -1.5825346   -1.5825541   0
    0  220.6236773  634.9845221  365.3323472   0.5000  -0.5000  -0.5000    1.5825038   -1.5825346   -1.5825541   0
    0  220.1038341  636.1892352  363.7178283   0.5000  -0.5000  -0.5000    1.5825038   -1.5825346   -1.5825541   0
    0  218.8723092  637.3080852  362.2451315   0.5000  -0.5000  -0.5000    1.5825038   -1.5825346   -1.5825541   0
    0  217.6001774  638.9332729  361.0137351   0.5000  -0.5000  -0.5000    1.5825038   -1.5825346   -1.5825541   0
    0  216.9320389  640.6489548  359.6652228   0.5000  -0.5000  -0.5000    1.5825038   -1.5825346   -1.5825541   0
    0  216.5608259  641.3086402  358.2805577   0.5000  -0.5000  -0.5000    1.5825038   -1.5825346   -1.5825541   0
    0  216.0422289  641.0405138  356.9359189   0.5000  -0.5000  -0.5000    1.5825038   -1.5825346   -1.5825541   0
    0  215.4079673  641.8291743  355.8330778   0.5000  -0.5000  -0.5000    1.5825038   -1.5825346   -1.5825541   0
    0  215.0896485  643.6416014  354.6827378   0.5000  -0.5000  -0.5000    1.5825038   -1.5825346   -1.5825541   0
    0  215.0779505  646.0631270  353.7491412   0.5000  -0.5000  -0.5000    1.5825038   -1.5825346   -1.5825541   0
    0  215.0634079  649.6342521  354.0703506   0.5000  -0.5000  -0.5000    1.5825038   -1.5825346   -1.5825541   0
    0  214.3796234  652.5084552  354.6642552   0.5000  -0.5000  -0.5000    1.5825038   -1.5825346   -1.5825541   0
    0  213.0510238  653.1551886  354.3381003   0.5000  -0.5000  -0.5000    1.5825038   -1.5825346   -1.5825541   0
    0  212.5229342  651.8823751  353.6662416   0.5000  -0.5000  -0.5000    1.5825038   -1.5825346   -1.5825541   0
    0  213.3479876  649.7780898  352.9199096   0.5000  -0.5000  -0.5000    1.5825038   -1.5825346   -1.5825541   0
    0  215.0019679  648.1713435  352.0235390   0.5000  -0.5000  -0.5000    1.5825038   -1.5825346   -1.5825541   0
    0  216.9048126  647.1753894  351.5082284   0.5000  -0.5000  -0.5000    1.5825038   -1.5825346   -1.5825541   0
    0  219.2807066  646.9298872  351.4345689   0.5000  -0.5000  -0.5000    1.5825038   -1.5825346   -1.5825541   0
    0  222.1292491  647.0681327  351.5800845   0.5000  -0.5000  -0.5000    1.5825038   -1.5825346   -1.5825541   0
    0  224.5355390  646.8436185  352.4445244   0.5000  -0.5000  -0.5000    1.5825038   -1.5825346   -1.5825541   0
    0  226.6923328  646.7772210  353.8905566   0.5000  -0.5000  -0.5000    1.5825038   -1.5825346   -1.5825541   0
    0  228.7436962  647.3641082  354.4667849   0.5000  -0.5000  -0.5000    1.5825038   -1.5825346   -1.5825541   0
    0  230.5677707  648.1111635  353.6788756   0.5000  -0.5000  -0.5000    1.5825038   -1.5825346   -1.5825541   0
    0  232.3247059  648.6403639  353.0802455   0.5000  -0.5000  -0.5000    1.5825038   -1.5825346   -1.5825541   0
    0  233.8124138  649.2824497  353.0718027   0.5000  -0.5000  -0.5000    1.5825038   -1.5825346   -1.5825541   0
    0  235.4634539  649.6982729  352.4706594   0.5000  -0.5000  -0.5000    1.5825038   -1.5825346   -1.5825541   0
    0  237.4848824  649.4127758  351.6459586   0.5000  -0.5000  -0.5000    1.5825038   -1.5825346   -1.5825541   0
    0  238.5560596  648.6790442  351.9238833   0.5000  -0.5000  -0.5000    1.5825038   -1.5825346   -1.5825541   0
    0  238.1802581  647.4283091  352.7677631   0.5000  -0.5000  -0.5000    1.5825038   -1.5825346   -1.5825541   0
    0  238.2048654  646.0405300  353.2334353   0.5000  -0.5000  -0.5000    1.5825038   -1.5825346   -1.5825541   0
    0  239.0829281  644.5823147  353.7953706   0.5000  -0.5000  -0.5000    1.5825038   -1.5825346   -1.5825541   0
    0  239.2243609  642.0105098  354.4728404   0.5000  -0.5000  -0.5000    1.5825038   -1.5825346   -1.5825541   0
    0  238.9878091  639.1316647  355.4612673   0.5000  -0.5000  -0.5000    1.5825038   -1.5825346   -1.5825541   0
    0  239.6465833  637.0745001  357.0475000   0.5000  -0.5000  -0.5000    1.5825038   -1.5825346   -1.5825541   0
    1  233.9903040  642.0647370  429.9500073  -0.5000  -0.5000  -0.5000   -1.5827364   -1.5823160   -1.5827193   0
    1  233.8149603  642.1067314  432.2971839  -0.5000  -0.5000  -0.5000   -1.5827364   -1.5823160   -1.5827193   0
    1  232.4367811  642.3237430  433.0062644  -0.5000  -0.5000  -0.5000   -1.5827364   -1.5823160   -1.5827193   0
    1  230.5846324  643.5276187  433.4716860  -0.5000  -0.5000  -0.5000   -1.5827364   -1.5823160   -1.5827193   0
    1  229.0731625  644.7717320  434.1870507  -0.5000  -0.5000  -0.5000   -1.5827364   -1.5823160   -1.5827193   0
    1  227.4427785  645.1192908  435.5167124  -0.5000  -0.5000  -0.5000   -1.5827364   -1.5823160   -1.5827193   0
    1  225.3266701  644.5574295  437.0351884  -0.5000  -0.5000  -0.5000   -1.5827364   -1.5823160   -1.5827193   0
    1  223.8294712  643.5967600  437.7952362  -0.5000  -0.5000  -0.5000   -1.5827364   -1.5823160   -1.5827193   0
    1  223.0667816  642.5461862  439.3832899  -0.5000  -0.5000  -0.5000   -1.5827364   -1.5823160   -1.5827193   0
    1  221.4763409  640.6212954  442.9728182  -0.5000  -0.5000  -0.5000   -1.5827364   -1.5823160   -1.5827193   0
    2  597.7322029  361.9478261  456.7873382  -0.5000   0.5000   0.5000   -1.5825038    1.5825346    1.5825541   0
    2  596.0185560  357.2105219  461.5340037  -0.5000   0.5000   0.5000   -1.5825038    1.5825346    1.5825541   0
    2  595.7214963  354.0406915  464.0431899  -0.5000   0.5000   0.5000   -1.5825038    1.5825346    1.5825541   0
    2  596.6748080  353.0332056  464.9844062  -0.5000   0.5000   0.5000   -1.5825038    1.5825346    1.5825541   0
    2  598.4509258  352.9709951  466.0632214  -0.5000   0.5000   0.5000   -1.5825038    1.5825346    1.5825541   0
    2  602.0466667  353.1457916  467.9571488  -0.5000   0.5000   0.5000   -1.5825038    1.5825346    1.5825541   0
    3  441.8905847  365.8831667  185.7649745   0.5000  -0.5000  -0.5000    1.5825038   -1.5825346   -1.5825541   1
    3  441.5371321  364.3949251  186.2075093   0.5000  -0.5000  -0.5000    1.5825038   -1.5825346   -1.5825541   1
    3  440.2344172  362.9817492  186.7525588   0.5000  -0.5000  -0.5000    1.5825038   -1.5825346   -1.5825541   1
    3  438.5627822  362.3305815  187.0038573   0.5000  -0.5000  -0.5000    1.5825038   -1.5825346   -1.5825541   1
    3  437.1505130  361.4325945  186.7431774   0.5000  -0.5000  -0.5000    1.5825038   -1.5825346   -1.5825541   1
    3  435.8814770  360.2943172  185.6282803   0.5000  -0.5000  -0.5000    1.5825038   -1.5825346   -1.5825541   1
    3  434.3172021  359.3445883  184.0039688   0.5000  -0.5000  -0.5000    1.5825038   -1.5825346   -1.5825541   1
    3  432.5355292  358.4427801  182.6471032   0.5000  -0.5000  -0.5000    1.5825038   -1.5825346   -1.5825541   1
    3  430.5626363  358.2343682  181.9417136   0.5000  -0.5000  -0.5000    1.5825038   -1.5825346   -1.5825541   1
    3  428.6271261  358.0597867  181.6677284   0.5000  -0.5000  -0.5000    1.5825038   -1.5825346   -1.5825541   1
    3  426.9789148  357.0082458  181.1203610   0.5000  -0.5000  -0.5000    1.5825038   -1.5825346   -1.5825541   1
    3  425.3395983  355.6127958  180.2440636   0.5000  -0.5000  -0.5000    1.5825038   -1.5825346   -1.5825541   1
    3  423.6132847  354.0116796  179.9314077   0.5000  -0.5000  -0.5000    1.5825038   -1.5825346   -1.5825541   1
    3  421.9487898  352.4084330  179.9430395   0.5000  -0.5000  -0.5000    1.5825038   -1.5825346   -1.5825541   1
    3  420.4916515  351.1245120  179.5501565   0.5000  -0.5000  -0.5000    1.5825038   -1.5825346   -1.5825541   1
    3  419.2987723  350.4244928  178.7868305   0.5000  -0.5000  -0.5000    1.5825038   -1.5825346   -1.5825541   1
    3  418.1852348  350.5507007  177.1573228   0.5000  -0.5000  -0.5000    1.5825038   -1.5825346   -1.5825541   1
    3  416.9914689  350.3964846  174.8185770   0.5000  -0.5000  -0.5000    1.5825038   -1.5825346   -1.5825541   1
    3  415.5274869  349.6968779  173.0458902   0.5000  -0.5000  -0.5000    1.5825038   -1.5825346   -1.5825541   1
    3  414.3967863  350.0792311  172.3386627   0.5000  -0.5000  -0.5000    1.5825038   -1.5825346   -1.5825541   1
    3  414.4822094  351.5673445  172.4540357   0.5000  -0.5000  -0.5000    1.5825038   -1.5825346   -1.5825541   1
    3  415.1173311  353.4037770  172.6091673   0.5000  -0.5000  -0.5000    1.5825038   -1.5825346   -1.5825541   1
    3  415.6442303  355.6916293  172.7128784   0.5000  -0.5000  -0.5000    1.5825038   -1.5825346   -1.5825541   1
    3  416.5067187  357.2714971  172.4667212   0.5000  -0.5000  -0.5000    1.5825038   -1.5825346   -1.5825541   1
    3  417.7078428  357.4706923  171.1150190   0.5000  -0.5000  -0.5000    1.5825038   -1.5825346   -1.5825541   1
    3  418.7745773  357.4872986  168.9989132   0.5000  -0.5000  -0.5000    1.5825038   -1.5825346   -1.5825541   1
    3  418.5161421  357.6205877  167.1621639   0.5000  -0.5000  -0.5000    1.5825038   -1.5825346   -1.5825541   1
    3  416.7907611  358.1213818  166.2523844   0.5000  -0.5000  -0.5000    1.5825038   -1.5825346   -1.5825541   1
    3  415.0098868  358.9582536  165.6384052   0.5000  -0.5000  -0.5000    1.5825038   -1.5825346   -1.5825541   1
    3  413.7621566  358.5709822  164.8656364   0.5000  -0.5000  -0.5000    1.5825038   -1.5825346   -1.5825541   1
    3  413.7096227  357.2226410  163.6484087   0.5000  -0.5000  -0.5000    1.5825038   -1.5825346   -1.5825541   1
    3  414.5370566  357.1043665  162.4856055   0.5000  -0.5000  -0.5000    1.5825038   -1.5825346   -1.5825541   1
    3  415.1131264  358.7123600  162.1044481   0.5000  -0.5000  -0.5000    1.5825038   -1.5825346   -1.5825541   1
    3  415.9567928  360.7318135  161.8345732   0.5000  -0.5000  -0.5000    1.5825038   -1.5825346   -1.5825541   1
    3  418.0275427  362.2355587  161.5096104   0.5000  -0.5000  -0.5000    1.5825038   -1.5825346   -1.5825541   1
    3  420.4751468  363.0425812  162.1582468   0.5000  -0.5000  -0.5000    1.5825038   -1.5825346   -1.5825541   1
    3  422.0325901  363.4154400  163.8232438   0.5000  -0.5000  -0.5000    1.5825038   -1.5825346   -1.5825541   1
    3  423.2578138  363.1687027  165.4530091   0.5000  -0.5000  -0.5000    1.5825038   -1.5825346   -1.5825541   1
    3  424.5945580  362.7484634  166.3302748   0.5000  -0.5000  -0.5000    1.5825038   -1.5825346   -1.5825541   1
    3  425.9659807  363.4766227  166.4198682   0.5000  -0.5000  -0.5000    1.5825038   -1.5825346   -1.5825541   1
    3  427.1697798  365.1304694  166.1323974   0.5000  -0.5000  -0.5000    1.5825038   -1.5825346   -1.5825541   1
    3  427.8739641  366.8164368  164.9085198   0.5000  -0.5000  -0.5000    1.5825038   -1.5825346   -1.5825541   1
    3  429.0574682  367.8083710  163.0033191   0.5000  -0.5000  -0.5000    1.5825038   -1.5825346   -1.5825541   1
    3  430.5148579  368.8176566  161.6849994   0.5000  -0.5000  -0.5000    1.5825038   -1.5825346   -1.5825541   1
    3  431.2380492  370.6897129  160.9132581   0.5000  -0.5000  -0.5000    1.5825038   -1.5825346   -1.5825541   1
    3  432.2243338  372.3931241  160.5904816   0.5000  -0.5000  -0.5000    1.5825038   -1.5825346   -1.5825541   1
    3  433.5161355  373.4629698  161.1720478   0.5000  -0.5000  -0.5000    1.5825038   -1.5825346   -1.5825541   1
    3  434.3142829  374.1663830  162.4513298   0.5000  -0.5000  -0.5000    1.5825038   -1.5825346   -1.5825541   1
    3  435.2716620  374.0898214  163.2561021   0.5000  -0.5000  -0.5000    1.5825038   -1.5825346   -1.5825541   1
    3  437.2373725  373.2972685  163.7077504   0.5000  -0.5000  -0.5000    1.5825038   -1.5825346   -1.5825541   1
    3  439.3745099  372.7846466  165.0110816   0.5000  -0.5000  -0.5000    1.5825038   -1.5825346   -1.5825541   1
    3  440.0637820  372.2509985  166.7807904   0.5000  -0.5000  -0.5000    1.5825038   -1.5825346   -1.5825541   1
    3  439.6414240  371.0291754  168.2948408   0.5000  -0.5000  -0.5000    1.5825038   -1.5825346   -1.5825541   1
    3  439.4403788  369.7057142  170.1849830   0.5000  -0.5000  -0.5000    1.5825038   -1.5825346   -1.5825541   1
    3  440.0581638  368.7401224  172.3835211   0.5000  -0.5000  -0.5000    1.5825038   -1.5825346   -1.5825541   1
    3  441.0296063  367.9908292  174.1383653   0.5000  -0.5000  -0.5000    1.5825038   -1.5825346   -1.5825541   1
    3  441.6922968  367.3500632  175.9705085   0.5000  -0.5000  -0.5000    1.5825038   -1.5825346   -1.5825541   1
    3  442.4215180  366.5867645  178.4228825   0.5000  -0.5000  -0.5000    1.5825038   -1.5825346   -1.5825541   1
    3  442.9529880  365.6838757  181.0892838   0.5000  -0.5000  -0.5000    1.5825038   -1.5825346   -1.5825541   1
    3  442.4170750  365.1902123  183.0680844   0.5000  -0.5000  -0.5000    1.5825038   -1.5825346   -1.5825541   1
    3  441.8214805  365.4438226  184.2384795   0.5000  -0.5000  -0.5000    1.5825038   -1.5825346   -1.5825541   1
    3  441.8905846  365.8831666  185.7649745   0.5000  -0.5000  -0.5000    1.5825038   -1.5825346   -1.5825541   1
    4  571.4510000  278.7726667   10.5956679   0.5000  -0.5000   0.5000    1.5827311   -1.5829290    1.5826857   0
    4  573.2885290  278.1083455   10.2741015   0.5000  -0.5000   0.5000    1.5827311   -1.5829290    1.5826857   0
    4  575.2898684  278.3418307   10.6412013   0.5000  -0.5000   0.5000    1.5827311   -1.5829290    1.5826857   0
    4  577.2167241  278.9460644   11.9202638   0.5000  -0.5000   0.5000    1.5827311   -1.5829290    1.5826857   0
    4  578.6431279  279.5810982   13.4203051   0.5000  -0.5000   0.5000    1.5827311   -1.5829290    1.5826857   0
    4  579.9183681  280.1325687   14.8479920   0.5000  -0.5000   0.5000    1.5827311   -1.5829290    1.5826857   0
    4  581.4868585  280.3031727   16.3754399   0.5000  -0.5000   0.5000    1.5827311   -1.5829290    1.5826857   0
    4  582.8747865  280.8034919   18.0700868   0.5000  -0.5000   0.5000    1.5827311   -1.5829290    1.5826857   0
    4  583.8691265  282.0582126   19.4525907   0.5000  -0.5000   0.5000    1.5827311   -1.5829290    1.5826857   0
    4  585.3092720  283.0207517   20.3184978   0.5000  -0.5000   0.5000    1.5827311   -1.5829290    1.5826857   0
    4  587.4061087  283.0359590   21.2058186   0.5000  -0.5000   0.5000    1.5827311   -1.5829290    1.5826857   0
    4  588.8791264  283.1884625   22.1324273   0.5000  -0.5000   0.5000    1.5827311   -1.5829290    1.5826857   0
    4  589.2231073  283.9062394   23.1343888   0.5000  -0.5000   0.5000    1.5827311   -1.5829290    1.5826857   0
    4  589.6464072  284.7427026   24.2370539   0.5000  -0.5000   0.5000    1.5827311   -1.5829290    1.5826857   0
    4  591.0683792  285.9201309   24.8738012   0.5000  -0.5000   0.5000    1.5827311   -1.5829290    1.5826857   0
    4  593.2989874  286.8573961   25.0320263   0.5000  -0.5000   0.5000    1.5827311   -1.5829290    1.5826857   0
    4  595.7193290  287.1608756   25.3805182   0.5000  -0.5000   0.5000    1.5827311   -1.5829290    1.5826857   0
    4  597.9341070  287.4889160   25.9829036   0.5000  -0.5000   0.5000    1.5827311   -1.5829290    1.5826857   0
    4  599.9155157  288.2388288   26.4052080   0.5000  -0.5000   0.5000    1.5827311   -1.5829290    1.5826857   0
    4  601.6719368  288.9481947   27.1154895   0.5000  -0.5000   0.5000    1.5827311   -1.5829290    1.5826857   0
    4  603.0906304  289.8609530   28.2308525   0.5000  -0.5000   0.5000    1.5827311   -1.5829290    1.5826857   0
    4  604.5627779  291.5346104   28.7433114   0.5000  -0.5000   0.5000    1.5827311   -1.5829290    1.5826857   0
    4  606.4806617  292.8502857   28.9358797   0.5000  -0.5000   0.5000    1.5827311   -1.5829290    1.5826857   0
    4  608.6086027  293.2863326   29.7510077   0.5000  -0.5000   0.5000    1.5827311   -1.5829290    1.5826857   0
    4  610.6835832  293.7676811   30.6627720   0.5000  -0.5000   0.5000    1.5827311   -1.5829290    1.5826857   0
    4  612.8053453  294.6774517   31.1240129   0.5000  -0.5000   0.5000    1.5827311   -1.5829290    1.5826857   0
    4  615.6335365  295.6487307   31.1731816   0.5000  -0.5000   0.5000    1.5827311   -1.5829290    1.5826857   0
    4  618.6402313  296.5394733   31.0268171   0.5000  -0.5000   0.5000    1.5827311   -1.5829290    1.5826857   0
    4  620.4293874  297.4208537   31.7373009   0.5000  -0.5000   0.5000    1.5827311   -1.5829290    1.5826857   0
    4  621.5158236  298.4036322   33.3278242   0.5000  -0.5000   0.5000    1.5827311   -1.5829290    1.5826857   0
    4  622.6214342  299.3210341   35.0891543   0.5000  -0.5000   0.5000    1.5827311   -1.5829290    1.5826857   0
    4  622.9798370  299.7938694   37.7758482   0.5000  -0.5000   0.5000    1.5827311   -1.5829290    1.5826857   0
    4  623.0800226  300.2249347   40.9557721   0.5000  -0.5000   0.5000    1.5827311   -1.5829290    1.5826857   0
    4  623.9928420  301.1552191   42.8360079   0.5000  -0.5000   0.5000    1.5827311   -1.5829290    1.5826857   0
    4  624.9824236  302.6360620   43.2739449   0.5000  -0.5000   0.5000    1.5827311   -1.5829290    1.5826857   0
    4  625.7957248  304.1372462   43.5476943   0.5000  -0.5000   0.5000    1.5827311   -1.5829290    1.5826857   0
    4  626.6741971  304.8739900   44.8794840   0.5000  -0.5000   0.5000    1.5827311   -1.5829290    1.5826857   0
    4  627.1683784  305.0492563   47.1679905   0.5000  -0.5000   0.5000    1.5827311   -1.5829290    1.5826857   0
    4  627.8756328  305.1637162   49.6542248   0.5000  -0.5000   0.5000    1.5827311   -1.5829290    1.5826857   0
    4  628.3744852  305.3173010   51.5171649   0.5000  -0.5000   0.5000    1.5827311   -1.5829290    1.5826857   0
    4  627.1854518  305.4234773   51.9070136   0.5000  -0.5000   0.5000    1.5827311   -1.5829290    1.5826857   0
    4  625.3748812  304.5707755   51.4639008   0.5000  -0.5000   0.5000    1.5827311   -1.5829290    1.5826857   0
    4  624.1114044  302.5015186   51.4301805   0.5000  -0.5000   0.5000    1.5827311   -1.5829290    1.5826857   0
    4  622.8533526  300.5004017   52.0125963   0.5000  -0.5000   0.5000    1.5827311   -1.5829290    1.5826857   0
    4  621.5074503  299.2523738   53.0592043   0.5000  -0.5000   0.5000    1.5827311   -1.5829290    1.5826857   0
    4  619.8835840  298.2992068   54.0868496   0.5000  -0.5000   0.5000    1.5827311   -1.5829290    1.5826857   0
    4  617.6386815  297.2975460   54.6866929   0.5000  -0.5000   0.5000    1.5827311   -1.5829290    1.5826857   0
    4  616.0059034  296.7823026   55.7367699   0.5000  -0.5000   0.5000    1.5827311   -1.5829290    1.5826857   0
    4  615.4096861  297.3504074   57.3878164   0.5000  -0.5000   0.5000    1.5827311   -1.5829290    1.5826857   0
    4  614.8919578  299.0397129   58.1836785   0.5000  -0.5000   0.5000    1.5827311   -1.5829290    1.5826857   0
    4  615.0143992  300.6710767   58.5625587   0.5000  -0.5000   0.5000    1.5827311   -1.5829290    1.5826857   0
    4  616.0251610  300.8312738   59.9364984   0.5000  -0.5000   0.5000    1.5827311   -1.5829290    1.5826857   0
    4  616.3754545  299.8799197   61.2722059   0.5000  -0.5000   0.5000    1.5827311   -1.5829290    1.5826857   0
    4  615.4571109  298.4332507   61.9874735   0.5000  -0.5000   0.5000    1.5827311   -1.5829290    1.5826857   0
    4  614.4152133  296.7572064   62.7844794   0.5000  -0.5000   0.5000    1.5827311   -1.5829290    1.5826857   0
    4  613.2181312  295.5775386   63.4945353   0.5000  -0.5000   0.5000    1.5827311   -1.5829290    1.5826857   0
    4  611.5011425  295.0571556   64.0229017   0.5000  -0.5000   0.5000    1.5827311   -1.5829290    1.5826857   0
    4  610.0397108  294.5898046   64.8877550   0.5000  -0.5000   0.5000    1.5827311   -1.5829290    1.5826857   0
    4  608.8967102  294.5918087   66.4392364   0.5000  -0.5000   0.5000    1.5827311   -1.5829290    1.5826857   0
    4  607.8728988  295.4349612   68.0200204   0.5000  -0.5000   0.5000    1.5827311   -1.5829290    1.5826857   0
    4  607.2287673  296.4832318   69.5010421   0.5000  -0.5000   0.5000    1.5827311   -1.5829290    1.5826857   0
    4  607.3869127  297.6464954   71.2112596   0.5000  -0.5000   0.5000    1.5827311   -1.5829290    1.5826857   0
    4  607.5046026  298.9411918   72.7552614   0.5000  -0.5000   0.5000    1.5827311   -1.5829290    1.5826857   0
    4  606.6172477  299.9414779   74.1790459   0.5000  -0.5000   0.5000    1.5827311   -1.5829290    1.5826857   0
    4  605.2844761  299.8650638   75.7507139   0.5000  -0.5000   0.5000    1.5827311   -1.5829290    1.5826857   0
    4  603.5558177  298.8657055   76.9895321   0.5000  -0.5000   0.5000    1.5827311   -1.5829290    1.5826857   0
    4  602.1575814  297.8218627   77.9186889   0.5000  -0.5000   0.5000    1.5827311   -1.5829290    1.5826857   0
    4  601.8714410  296.5632897   78.9490666   0.5000  -0.5000   0.5000    1.5827311   -1.5829290    1.5826857   0
    4  601.0964872  295.5944501   79.2530605   0.5000  -0.5000   0.5000    1.5827311   -1.5829290    1.5826857   0
    4  599.3741353  295.5609435   78.9794064   0.5000  -0.5000   0.5000    1.5827311   -1.5829290    1.5826857   0
    4  597.1326538  295.4778887   79.1146180   0.5000  -0.5000   0.5000    1.5827311   -1.5829290    1.5826857   0
    4  594.1103348  294.8708303   79.4035866   0.5000  -0.5000   0.5000    1.5827311   -1.5829290    1.5826857   0
    4  591.2577180  294.1865154   79.9644371   0.5000  -0.5000   0.5000    1.5827311   -1.5829290    1.5826857   0
    4  589.2365985  293.7789286   81.3872560   0.5000  -0.5000   0.5000    1.5827311   -1.5829290    1.5826857   0
    4  587.3104197  293.6643736   83.1819179   0.5000  -0.5000   0.5000    1.5827311   -1.5829290    1.5826857   0
    4  585.6250059  293.8065911   84.5743176   0.5000  -0.5000   0.5000    1.5827311   -1.5829290    1.5826857   0
    4  584.4178868  294.0327114   86.3717004   0.5000  -0.5000   0.5000    1.5827311   -1.5829290    1.5826857   0
    4  582.5015452  293.8065730   89.5769163   0.5000  -0.5000   0.5000    1.5827311   -1.5829290    1.5826857   0
    5  521.5687105  684.8725709   86.2660126  -0.5000   0.5000   0.5000   -1.5825038    1.5825346    1.5825541   0
    5  524.4677613  688.3661451   85.4138529  -0.5000   0.5000   0.5000   -1.5825038    1.5825346    1.5825541   0
    5  525.1190259  689.1022877   83.6673418  -0.5000   0.5000   0.5000   -1.5825038    1.5825346    1.5825541   0
    5  524.6099739  689.1636777   81.5801079  -0.5000   0.5000   0.5000   -1.5825038    1.5825346    1.5825541   0
    5  525.1286485  690.3002213   79.6700256  -0.5000   0.5000   0.5000   -1.5825038    1.5825346    1.5825541   0
    5  526.2985468  691.3346922   77.8360041  -0.5000   0.5000   0.5000   -1.5825038    1.5825346    1.5825541   0
    5  527.1753138  692.2072244   76.1511877  -0.5000   0.5000   0.5000   -1.5825038    1.5825346    1.5825541   0
    5  527.7818189  693.9263912   75.1251905  -0.5000   0.5000   0.5000   -1.5825038    1.5825346    1.5825541   0
    5  528.6464014  696.0980194   74.8912410  -0.5000   0.5000   0.5000   -1.5825038    1.5825346    1.5825541   0
    5  530.5894524  697.1786359   75.1197050  -0.5000   0.5000   0.5000   -1.5825038    1.5825346    1.5825541   0
    5  532.5789846  696.8973652   76.1174610  -0.5000   0.5000   0.5000   -1.5825038    1.5825346    1.5825541   0
    5  534.3011667  696.4348930   77.3231861  -0.5000   0.5000   0.5000   -1.5825038    1.5825346    1.5825541   0
    5  536.7386867  696.7245452   77.7626177  -0.5000   0.5000   0.5000   -1.5825038    1.5825346    1.5825541   0
    5  538.6837591  697.0096606   78.3584823  -0.5000   0.5000   0.5000   -1.5825038    1.5825346    1.5825541   0
    5  539.8247429  696.3613015   79.5325397  -0.5000   0.5000   0.5000   -1.5825038    1.5825346    1.5825541   0
    5  541.0931737  695.4886498   80.8168299  -0.5000   0.5000   0.5000   -1.5825038    1.5825346    1.5825541   0
    5  542.4164156  695.2493052   82.1365605  -0.5000   0.5000   0.5000   -1.5825038    1.5825346    1.5825541   0
    5  544.4581248  695.4602258   82.9866974  -0.5000   0.5000   0.5000   -1.5825038    1.5825346    1.5825541   0
    5  547.1291981  695.8615310   83.2915341  -0.5000   0.5000   0.5000   -1.5825038    1.5825346    1.5825541   0
    5  549.0101877  697.1369838   83.2935399  -0.5000   0.5000   0.5000   -1.5825038    1.5825346    1.5825541   0
    5  550.3224668  698.4421114   83.2215001  -0.5000   0.5000   0.5000   -1.5825038    1.5825346    1.5825541   0
    5  551.5276065  698.0674756   83.6035097  -0.5000   0.5000   0.5000   -1.5825038    1.5825346    1.5825541   0
    5  552.1767541  696.9214588   84.6988745  -0.5000   0.5000   0.5000   -1.5825038    1.5825346    1.5825541   0
    5  552.7719470  696.0811710   86.1601959  -0.5000   0.5000   0.5000   -1.5825038    1.5825346    1.5825541   0
    5  553.6975673  695.2247764   87.5160331  -0.5000   0.5000   0.5000   -1.5825038    1.5825346    1.5825541   0
    5  554.4233062  693.8164234   88.7220170  -0.5000   0.5000   0.5000   -1.5825038    1.5825346    1.5825541   0
    5  554.5359601  691.3833902   89.5019858  -0.5000   0.5000   0.5000   -1.5825038    1.5825346    1.5825541   0
    5  553.7871683  689.3193827   89.5277547  -0.5000   0.5000   0.5000   -1.5825038    1.5825346    1.5825541   0
    5  552.0120434  688.5117521   89.4739912  -0.5000   0.5000   0.5000   -1.5825038    1.5825346    1.5825541   0
    5  550.0517526  687.3881436   90.7062308  -0.5000   0.5000   0.5000   -1.5825038    1.5825346    1.5825541   0
    5  549.5010497  685.9152220   92.6692163  -0.5000   0.5000   0.5000   -1.5825038    1.5825346    1.5825541   0
    5  549.5320809  685.5693896   92.9798248  -0.5000   0.5000   0.5000   -1.5825038    1.5825346    1.5825541   0
    5  547.5556738  685.6801053   92.3104953  -0.5000   0.5000   0.5000   -1.5825038    1.5825346    1.5825541   0
    5  543.5839722  684.6898973   93.2149414  -0.5000   0.5000   0.5000   -1.5825038    1.5825346    1.5825541   0
    6  603.8707544  117.6087375  577.3501379   0.5000   0.5000  -0.5000    1.5825091    1.5827104   -1.5825205   0
    6  607.4583293  121.6253677  579.9883701   0.5000   0.5000  -0.5000    1.5825091    1.5827104   -1.5825205   0
    6  606.8413424  122.3975580  581.6509994   0.5000   0.5000  -0.5000    1.5825091    1.5827104   -1.5825205   0
    6  604.4903464  122.9715423  582.3450714   0.5000   0.5000  -0.5000    1.5825091    1.5827104   -1.5825205   0
    6  602.6776413  124.0259982  581.6165175   0.5000   0.5000  -0.5000    1.5825091    1.5827104   -1.5825205   0
    6  601.3180644  124.1825831  580.0818548   0.5000   0.5000  -0.5000    1.5825091    1.5827104   -1.5825205   0
    6  600.3456578  123.7787875  578.2165570   0.5000   0.5000  -0.5000    1.5825091    1.5827104   -1.5825205   0
    6  600.0458108  123.1379106  575.7918949   0.5000   0.5000  -0.5000    1.5825091    1.5827104   -1.5825205   0
    6  600.7199253  122.0532349  574.2126342   0.5000   0.5000  -0.5000    1.5825091    1.5827104   -1.5825205   0
    6  601.1454155  120.7222141  574.4003833   0.5000   0.5000  -0.5000    1.5825091    1.5827104   -1.5825205   0
    6  599.9360554  119.2103096  575.2205862   0.5000   0.5000  -0.5000    1.5825091    1.5827104   -1.5825205   0
    6  599.9421856  117.8330240  575.9936289   0.5000   0.5000  -0.5000    1.5825091    1.5827104   -1.5825205   0
    6  603.8707544  117.6087375  577.3501379   0.5000   0.5000  -0.5000    1.5825091    1.5827104   -1.5825205   0
    7  689.2344103  123.3658641  667.8958353  -0.5000  -0.5000   0.5000   -1.5825091   -1.5827104    1.5825205   1
    7  690.0010815  122.7067423  667.8863592  -0.5000  -0.5000   0.5000   -1.5825091   -1.5827104    1.5825205   1
    7  691.5641793  121.3831027  666.7647279  -0.5000  -0.5000   0.5000   -1.5825091   -1.5827104    1.5825205   1
    7  693.5866751  120.0985165  666.3831362  -0.5000  -0.5000   0.5000   -1.5825091   -1.5827104    1.5825205   1
    7  695.2816616  119.3981177  667.1137592  -0.5000  -0.5000   0.5000   -1.5825091   -1.5827104    1.5825205   1
    7  697.4036618  119.8088531  667.7244959  -0.5000  -0.5000   0.5000   -1.5825091   -1.5827104    1.5825205   1
    7  699.5692202  120.4824845  668.3297142  -0.5000  -0.5000   0.5000   -1.5825091   -1.5827104    1.5825205   1
    7  701.0259085  120.7487859  669.6179987  -0.5000  -0.5000   0.5000   -1.5825091   -1.5827104    1.5825205   1
    7  701.7037164  121.2759067  671.4017296  -0.5000  -0.5000   0.5000   -1.5825091   -1.5827104    1.5825205   1
    7  701.1421662  122.0338298  672.9057990  -0.5000  -0.5000   0.5000   -1.5825091   -1.5827104    1.5825205   1
    7  699.5981267  122.6688792  672.9430075  -0.5000  -0.5000   0.5000   -1.5825091   -1.5827104    1.5825205   1
    7  698.3220191  123.9145780  671.7572670  -0.5000  -0.5000   0.5000   -1.5825091   -1.5827104    1.5825205   1
    7  697.4583005  126.0813292  670.6735067  -0.5000  -0.5000   0.5000   -1.5825091   -1.5827104    1.5825205   1
    7  696.3398189  127.5990060  669.6811029  -0.5000  -0.5000   0.5000   -1.5825091   -1.5827104    1.5825205   1
    7  694.7113714  127.5124470  669.0001271  -0.5000  -0.5000   0.5000   -1.5825091   -1.5827104    1.5825205   1
    7  692.6851931  126.5156531  668.7472283  -0.5000  -0.5000   0.5000   -1.5825091   -1.5827104    1.5825205   1
    7  690.9055481  125.2593741  668.3352713  -0.5000  -0.5000   0.5000   -1.5825091   -1.5827104    1.5825205   1