ITEM: TIMESTEP
0
ITEM: NUMBER OF ATOMS
12607
ITEM: BOX BOUNDS pp pp pp 
0.0 696.585102
0.0 696.591408
0.0 697.069378
ITEM: ATOMS id x y z tbx tby tbz sbx sby sbz loop
    0  480.9732857  570.6992858  587.9111429  -0.5000   0.5000   0.5000   -1.5821875    1.5809679    1.5822034   0
    0  480.2442166  571.0554733  585.8703345  -0.5000   0.5000   0.5000   -1.5821875    1.5809679    1.5822034   0
    0  480.6477576  571.8634074  583.9544676  -0.5000   0.5000   0.5000   -1.5821875    1.5809679    1.5822034   0
    0  482.1833182  573.4537271  582.5575537  -0.5000   0.5000   0.5000   -1.5821875    1.5809679    1.5822034   0
    0  484.0253470  574.9222275  582.0443112  -0.5000   0.5000   0.5000   -1.5821875    1.5809679    1.5822034   0
    0  484.8786180  576.1051521  581.5195522  -0.5000   0.5000   0.5000   -1.5821875    1.5809679    1.5822034   0
    0  484.8795485  577.7996572  580.2944223  -0.5000   0.5000   0.5000   -1.5821875    1.5809679    1.5822034   0
    0  485.8126188  579.2889598  579.1942277  -0.5000   0.5000   0.5000   -1.5821875    1.5809679    1.5822034   0
    0  487.4912747  580.0075122  579.6812924  -0.5000   0.5000   0.5000   -1.5821875    1.5809679    1.5822034   0
    0  488.8041905  580.4930458  581.7293127  -0.5000   0.5000   0.5000   -1.5821875    1.5809679    1.5822034   0
    0  490.1182835  580.5603220  583.3009010  -0.5000   0.5000   0.5000   -1.5821875    1.5809679    1.5822034   0
    0  491.9078006  579.9647139  583.4482032  -0.5000   0.5000   0.5000   -1.5821875    1.5809679    1.5822034   0
    0  493.8297347  579.3663074  583.4032640  -0.5000   0.5000   0.5000   -1.5821875    1.5809679    1.5822034   0
    0  495.6247094  580.1469216  583.6984995  -0.5000   0.5000   0.5000   -1.5821875    1.5809679    1.5822034   0
    0  497.6879233  582.9446402  583.9224764  -0.5000   0.5000   0.5000   -1.5821875    1.5809679    1.5822034   0
    1  473.5517856  601.3639286   15.9414501   0.5000  -0.5000  -0.5000    1.5821875   -1.5809679   -1.5822034   0
    1  472.7860496  599.9347969   17.3357275   0.5000  -0.5000  -0.5000    1.5821875   -1.5809679   -1.5822034   0
    1  472.2450810  599.3437448   18.6598484   0.5000  -0.5000  -0.5000    1.5821875   -1.5809679   -1.5822034   0
    1  472.5548460  599.2045114   20.2114238   0.5000  -0.5000  -0.5000    1.5821875   -1.5809679   -1.5822034   0
    1  474.2027491  599.5803079   21.4073424   0.5000  -0.5000  -0.5000    1.5821875   -1.5809679   -1.5822034   0
    1  476.3926082  601.0109881   21.4834687   0.5000  -0.5000  -0.5000    1.5821875   -1.5809679   -1.5822034   0
    1  478.0047471  602.8739330   20.5484236   0.5000  -0.5000  -0.5000    1.5821875   -1.5809679   -1.5822034   0
    1  478.8781627  604.3036612   19.1186215   0.5000  -0.5000  -0.5000    1.5821875   -1.5809679   -1.5822034   0
    1  479.3583355  604.9932953   17.8661338   0.5000  -0.5000  -0.5000    1.5821875   -1.5809679   -1.5822034   0
    1  480.0260001  605.0544285   17.0890572   0.5000  -0.5000  -0.5000    1.5821875   -1.5809679   -1.5822034   0
    2  474.6051333  576.7052500   46.0324733  -1.0000   0.0000   0.0000   -3.1644684   -0.0001035   -0.0000644   0
    2  476.1996919  576.1116019   46.9185571  -1.0000   0.0000   0.0000   -3.1644684   -0.0001035   -0.0000644   0
    2  477.7186662  575.1825889   48.1263395  -1.0000   0.0000   0.0000   -3.1644684   -0.0001035   -0.0000644   0
    2  479.7177995  573.9729575   48.9396916  -1.0000   0.0000   0.0000   -3.1644684   -0.0001035   -0.0000644   0
    2  481.7647983  572.5989364   48.8576663  -1.0000   0.0000   0.0000   -3.1644684   -0.0001035   -0.0000644   0
    2  483.2512346  571.6659813   48.9122112  -1.0000   0.0000   0.0000   -3.1644684   -0.0001035   -0.0000644   0
    2  483.9779517  570.5413196   49.6885229  -1.0000   0.0000   0.0000   -3.1644684   -0.0001035   -0.0000644   0
    2  484.4075123  569.3275183   50.7336760  -1.0000   0.0000   0.0000   -3.1644684   -0.0001035   -0.0000644   0
    2  485.3043708  569.7104866   51.9861162  -1.0000   0.0000   0.0000   -3.1644684   -0.0001035   -0.0000644   0
    2  486.6579640  571.1427744   53.3905733  -1.0000   0.0000   0.0000   -3.1644684   -0.0001035   -0.0000644   0
    2  488.4647069  571.9451376   54.6817857  -1.0000   0.0000   0.0000   -3.1644684   -0.0001035   -0.0000644   0
    2  490.3927959  572.2621407   55.9577705  -1.0000   0.0000   0.0000   -3.1644684   -0.0001035   -0.0000644   0
    2  492.0518284  572.3336112   57.1324328  -1.0000   0.0000   0.0000   -3.1644684   -0.0001035   -0.0000644   0
    2  493.3585372  571.9850730   58.5887284  -1.0000   0.0000   0.0000   -3.1644684   -0.0001035   -0.0000644   0
    2  494.3037061  571.6870188   60.6305376  -1.0000   0.0000   0.0000   -3.1644684   -0.0001035   -0.0000644   0
    2  495.3145560  571.6347190   62.5804503  -1.0000   0.0000   0.0000   -3.1644684   -0.0001035   -0.0000644   0
    2  496.5475727  571.4204656   64.5149632  -1.0000   0.0000   0.0000   -3.1644684   -0.0001035   -0.0000644   0
    2  498.0726511  570.4322788   66.3104222  -1.0000   0.0000   0.0000   -3.1644684   -0.0001035   -0.0000644   0
    2  499.7519098  569.7261720   67.3575632  -1.0000   0.0000   0.0000   -3.1644684   -0.0001035   -0.0000644   0
    2  501.2859430  570.4166031   68.2999551  -1.0000   0.0000   0.0000   -3.1644684   -0.0001035   -0.0000644   0
    2  502.6754916  571.5723047   69.8562442  -1.0000   0.0000   0.0000   -3.1644684   -0.0001035   -0.0000644   0
    2  503.5897039  572.5771778   71.7728527  -1.0000   0.0000   0.0000   -3.1644684   -0.0001035   -0.0000644   0
    2  504.5973495  573.0658533   73.6735925  -1.0000   0.0000   0.0000   -3.1644684   -0.0001035   -0.0000644   0
    2  506.2094569  572.6899728   75.7397209  -1.0000   0.0000   0.0000   -3.1644684   -0.0001035   -0.0000644   0
    2  507.3067318  572.8729651   78.5822121  -1.0000   0.0000   0.0000   -3.1644684   -0.0001035   -0.0000644   0
    2  507.7291001  573.5406434   80.4013993  -1.0000   0.0000   0.0000   -3.1644684   -0.0001035   -0.0000644   0
    2  508.2041209  572.4038456   79.6842235  -1.0000   0.0000   0.0000   -3.1644684   -0.0001035   -0.0000644   0
    2  508.7542312  570.0475049   79.1429306  -1.0000   0.0000   0.0000   -3.1644684   -0.0001035   -0.0000644   0
    2  509.5530514  568.2195709   79.2997933  -1.0000   0.0000   0.0000   -3.1644684   -0.0001035   -0.0000644   0
    2  510.7880372  566.6859735   78.6934028  -1.0000   0.0000   0.0000   -3.1644684   -0.0001035   -0.0000644   0
    2  512.3006679  564.8046772   77.5967173  -1.0000   0.0000   0.0000   -3.1644684   -0.0001035   -0.0000644   0
    2  513.9558330  563.0274098   76.1165291  -1.0000   0.0000   0.0000   -3.1644684   -0.0001035   -0.0000644   0
    2  515.3390976  561.4853999   74.7522602  -1.0000   0.0000   0.0000   -3.1644684   -0.0001035   -0.0000644   0
    2  516.0764727  559.5146017   74.4971845  -1.0000   0.0000   0.0000   -3.1644684   -0.0001035   -0.0000644   0
    2  516.7040976  557.5334899   75.5682880  -1.0000   0.0000   0.0000   -3.1644684   -0.0001035   -0.0000644   0
    2  517.9095733  556.1363294   76.6251443  -1.0000   0.0000   0.0000   -3.1644684   -0.0001035   -0.0000644   0
    2  519.3829841  554.8206834   76.5546587  -1.0000   0.0000   0.0000   -3.1644684   -0.0001035   -0.0000644   0
    2  520.4259907  553.0302345   76.5143968  -1.0000   0.0000   0.0000   -3.1644684   -0.0001035   -0.0000644   0
    2  521.1739944  551.1712870   77.6367861  -1.0000   0.0000   0.0000   -3.1644684   -0.0001035   -0.0000644   0
    2  522.3212018  549.7020261   79.2319145  -1.0000   0.0000   0.0000   -3.1644684   -0.0001035   -0.0000644   0
    2  523.7628798  548.0872062   80.9047579  -1.0000   0.0000   0.0000   -3.1644684   -0.0001035   -0.0000644   0
    2  525.1120476  545.9250238   82.9882952  -1.0000   0.0000   0.0000   -3.1644684   -0.0001035   -0.0000644   0
    3  506.4988616  233.3210133  122.8329062  -0.5000   0.5000  -0.5000   -1.5823958    1.5834685   -1.5823318   0
    3  502.8419161  234.0426405  121.8904910  -0.5000   0.5000  -0.5000   -1.5823958    1.5834685   -1.5823318   0
    3  500.8769181  233.8345261  120.0213663  -0.5000   0.5000  -0.5000   -1.5823958    1.5834685   -1.5823318   0
    3  500.1520344  233.1104984  117.7881488  -0.5000   0.5000  -0.5000   -1.5823958    1.5834685   -1.5823318   0
    3  499.9443096  232.6901306  115.4780836  -0.5000   0.5000  -0.5000   -1.5823958    1.5834685   -1.5823318   0
    3  499.5253795  232.6194016  113.2919091  -0.5000   0.5000  -0.5000   -1.5823958    1.5834685   -1.5823318   0
    3  498.8405565  232.8167715  111.5630071  -0.5000   0.5000  -0.5000   -1.5823958    1.5834685   -1.5823318   0
    3  497.9746011  232.6855327  110.2206532  -0.5000   0.5000  -0.5000   -1.5823958    1.5834685   -1.5823318   0
    3  496.9583299  231.8937936  108.9712403  -0.5000   0.5000  -0.5000   -1.5823958    1.5834685   -1.5823318   0
    3  496.1218487  230.5294332  107.8635556  -0.5000   0.5000  -0.5000   -1.5823958    1.5834685   -1.5823318   0
    3  495.9505777  228.8677061  106.5774245  -0.5000   0.5000  -0.5000   -1.5823958    1.5834685   -1.5823318   0
    3  496.3363082  227.7601649  104.5195470  -0.5000   0.5000  -0.5000   -1.5823958    1.5834685   -1.5823318   0
    3  496.5972232  226.9579393  101.8889335  -0.5000   0.5000  -0.5000   -1.5823958    1.5834685   -1.5823318   0
    3  497.0411570  226.3893400   99.4522142  -0.5000   0.5000  -0.5000   -1.5823958    1.5834685   -1.5823318   0
    3  498.1840123  226.8400190   97.8228205  -0.5000   0.5000  -0.5000   -1.5823958    1.5834685   -1.5823318   0
    3  499.4575883  228.1341017   96.6618445  -0.5000   0.5000  -0.5000   -1.5823958    1.5834685   -1.5823318   0
    3  500.4245813  229.2895520   95.0648812  -0.5000   0.5000  -0.5000   -1.5823958    1.5834685   -1.5823318   0
    3  501.1836024  229.2269429   93.0028889  -0.5000   0.5000  -0.5000   -1.5823958    1.5834685   -1.5823318   0
    3  501.7699502  227.9683336   91.3343844  -0.5000   0.5000  -0.5000   -1.5823958    1.5834685   -1.5823318   0
    3  501.6880316  226.5599575   90.4819658  -0.5000   0.5000  -0.5000   -1.5823958    1.5834685   -1.5823318   0
    3  500.1671978  225.3629947   90.4307575  -0.5000   0.5000  -0.5000   -1.5823958    1.5834685   -1.5823318   0
    3  497.8598952  224.2087723   91.0525266  -0.5000   0.5000  -0.5000   -1.5823958    1.5834685   -1.5823318   0
    3  496.1540253  223.0803615   92.1844722  -0.5000   0.5000  -0.5000   -1.5823958    1.5834685   -1.5823318   0
    3  494.9209698  221.8587834   93.3099415  -0.5000   0.5000  -0.5000   -1.5823958    1.5834685   -1.5823318   0
    3  493.5268781  221.1974513   94.5158624  -0.5000   0.5000  -0.5000   -1.5823958    1.5834685   -1.5823318   0
    3  491.8454209  221.4877804   96.0853908  -0.5000   0.5000  -0.5000   -1.5823958    1.5834685   -1.5823318   0
    3  489.6395347  221.7504295   97.1363284  -0.5000   0.5000  -0.5000   -1.5823958    1.5834685   -1.5823318   0
    3  487.1535789  221.5861643   97.8856707  -0.5000   0.5000  -0.5000   -1.5823958    1.5834685   -1.5823318   0
    3  484.7323464  221.0186085   98.8259985  -0.5000   0.5000  -0.5000   -1.5823958    1.5834685   -1.5823318   0
    3  482.4906644  219.9451623   99.2558593  -0.5000   0.5000  -0.5000   -1.5823958    1.5834685   -1.5823318   0
    3  481.0418072  218.1932015   99.2250077  -0.5000   0.5000  -0.5000   -1.5823958    1.5834685   -1.5823318   0
    3  480.7112036  216.1266342   98.8173579  -0.5000   0.5000  -0.5000   -1.5823958    1.5834685   -1.5823318   0
    3  480.9900245  214.4471199   97.8625673  -0.5000   0.5000  -0.5000   -1.5823958    1.5834685   -1.5823318   0
    3  481.4575801  212.5191253   96.6481295  -0.5000   0.5000  -0.5000   -1.5823958    1.5834685   -1.5823318   0
    3  482.1352872  210.7692052   95.0501876  -0.5000   0.5000  -0.5000   -1.5823958    1.5834685   -1.5823318   0
    3  482.5928868  210.8874596   93.1229807  -0.5000   0.5000  -0.5000   -1.5823958    1.5834685   -1.5823318   0
    3  482.4237655  212.2541673   92.1624244  -0.5000   0.5000  -0.5000   -1.5823958    1.5834685   -1.5823318   0
    3  481.5827097  212.7510335   93.3885129  -0.5000   0.5000  -0.5000   -1.5823958    1.5834685   -1.5823318   0
    3  480.1618864  212.2784957   95.8014340  -0.5000   0.5000  -0.5000   -1.5823958    1.5834685   -1.5823318   0
    3  479.1019220  211.7841931   98.1394449  -0.5000   0.5000  -0.5000   -1.5823958    1.5834685   -1.5823318   0
    3  478.2098078  210.9847374  100.3287826  -0.5000   0.5000  -0.5000   -1.5823958    1.5834685   -1.5823318   0
    3  476.8573934  210.0472969  101.9937120  -0.5000   0.5000  -0.5000   -1.5823958    1.5834685   -1.5823318   0
    3  476.0285178  209.2339347  103.2246825  -0.5000   0.5000  -0.5000   -1.5823958    1.5834685   -1.5823318   0
    3  475.9272082  208.5128741  104.7859638  -0.5000   0.5000  -0.5000   -1.5823958    1.5834685   -1.5823318   0
    3  475.8897166  208.7452282  106.5165335  -0.5000   0.5000  -0.5000   -1.5823958    1.5834685   -1.5823318   0
    3  475.7261621  209.6380936  108.5873078  -0.5000   0.5000  -0.5000   -1.5823958    1.5834685   -1.5823318   0
    3  475.0658716  210.0156634  111.1452106  -0.5000   0.5000  -0.5000   -1.5823958    1.5834685   -1.5823318   0
    3  474.0146313  210.3886163  112.8109649  -0.5000   0.5000  -0.5000   -1.5823958    1.5834685   -1.5823318   0
    3  473.6250897  211.1114213  113.9527449  -0.5000   0.5000  -0.5000   -1.5823958    1.5834685   -1.5823318   0
    3  473.9715440  211.4026958  116.1876207  -0.5000   0.5000  -0.5000   -1.5823958    1.5834685   -1.5823318   0
    3  474.2316973  211.3751825  119.3615245  -0.5000   0.5000  -0.5000   -1.5823958    1.5834685   -1.5823318   0
    3  474.0793665  211.3941921  122.6687865  -0.5000   0.5000  -0.5000   -1.5823958    1.5834685   -1.5823318   0
    3  473.0558851  211.3640191  125.1525251  -0.5000   0.5000  -0.5000   -1.5823958    1.5834685   -1.5823318   0
    3  471.5441357  211.5416959  126.7265120  -0.5000   0.5000  -0.5000   -1.5823958    1.5834685   -1.5823318   0
    3  470.9435605  211.7737092  128.3483125  -0.5000   0.5000  -0.5000   -1.5823958    1.5834685   -1.5823318   0
    3  471.0030391  211.9847470  130.3798387  -0.5000   0.5000  -0.5000   -1.5823958    1.5834685   -1.5823318   0
    3  470.9595775  212.6364076  132.8399091  -0.5000   0.5000  -0.5000   -1.5823958    1.5834685   -1.5823318   0
    3  471.0869624  213.5539624  135.2113134  -0.5000   0.5000  -0.5000   -1.5823958    1.5834685   -1.5823318   0
    3  471.1286424  214.3112644  137.6123302  -0.5000   0.5000  -0.5000   -1.5823958    1.5834685   -1.5823318   0
    3  470.8714099  214.7845199  140.3763455  -0.5000   0.5000  -0.5000   -1.5823958    1.5834685   -1.5823318   0
    3  471.1040393  215.3940983  142.6364579  -0.5000   0.5000  -0.5000   -1.5823958    1.5834685   -1.5823318   0
    3  472.3164941  216.6081517  144.3530893  -0.5000   0.5000  -0.5000   -1.5823958    1.5834685   -1.5823318   0
    3  473.8829923  218.4631135  146.0184822  -0.5000   0.5000  -0.5000   -1.5823958    1.5834685   -1.5823318   0
    3  475.2929592  220.4031576  147.1168296  -0.5000   0.5000  -0.5000   -1.5823958    1.5834685   -1.5823318   0
    3  476.6131803  221.9739122  146.8090612  -0.5000   0.5000  -0.5000   -1.5823958    1.5834685   -1.5823318   0
    3  477.7677369  223.3352405  145.2473556  -0.5000   0.5000  -0.5000   -1.5823958    1.5834685   -1.5823318   0
    3  478.5999048  223.9821688  143.4982926  -0.5000   0.5000  -0.5000   -1.5823958    1.5834685   -1.5823318   0
    3  479.0614336  223.4738073  141.7958766  -0.5000   0.5000  -0.5000   -1.5823958    1.5834685   -1.5823318   0
    3  479.4630048  222.4676610  139.7599337  -0.5000   0.5000  -0.5000   -1.5823958    1.5834685   -1.5823318   0
    3  480.0453838  221.3301040  137.8041867  -0.5000   0.5000  -0.5000   -1.5823958    1.5834685   -1.5823318   0
    3  480.4235863  219.9815471  136.2440513  -0.5000   0.5000  -0.5000   -1.5823958    1.5834685   -1.5823318   0
    3  480.6579046  218.6058116  134.8176214  -0.5000   0.5000  -0.5000   -1.5823958    1.5834685   -1.5823318   0
    3  480.8041019  217.1129865  133.5505668  -0.5000   0.5000  -0.5000   -1.5823958    1.5834685   -1.5823318   0
    3  480.1287611  215.4497370  132.5649845  -0.5000   0.5000  -0.5000   -1.5823958    1.5834685   -1.5823318   0
    3  479.3801946  213.8279883  131.6644121  -0.5000   0.5000  -0.5000   -1.5823958    1.5834685   -1.5823318   0
    3  479.9469273  212.4639919  130.4690813  -0.5000   0.5000  -0.5000   -1.5823958    1.5834685   -1.5823318   0
    3  481.7271547  211.7383880  129.1861049  -0.5000   0.5000  -0.5000   -1.5823958    1.5834685   -1.5823318   0
    3  483.9044585  211.9818239  128.3430459  -0.5000   0.5000  -0.5000   -1.5823958    1.5834685   -1.5823318   0
    3  485.6963373  212.9190230  127.7049265  -0.5000   0.5000  -0.5000   -1.5823958    1.5834685   -1.5823318   0
    3  487.0394670  214.1110923  127.5203056  -0.5000   0.5000  -0.5000   -1.5823958    1.5834685   -1.5823318   0
    3  488.1656932  215.6659811  128.3826002  -0.5000   0.5000  -0.5000   -1.5823958    1.5834685   -1.5823318   0
    3  489.4342981  217.2931767  129.5803647  -0.5000   0.5000  -0.5000   -1.5823958    1.5834685   -1.5823318   0
    3  490.9900250  218.2334886  130.1640591  -0.5000   0.5000  -0.5000   -1.5823958    1.5834685   -1.5823318   0
    3  492.5732466  218.6050203  130.2537207  -0.5000   0.5000  -0.5000   -1.5823958    1.5834685   -1.5823318   0
    3  494.4022604  219.1867509  130.0614283  -0.5000   0.5000  -0.5000   -1.5823958    1.5834685   -1.5823318   0
    3  496.1177860  220.0559780  130.1534549  -0.5000   0.5000  -0.5000   -1.5823958    1.5834685   -1.5823318   0
    3  497.3472137  220.9987628  130.9984256  -0.5000   0.5000  -0.5000   -1.5823958    1.5834685   -1.5823318   0
    3  498.3258282  222.3361498  131.9281704  -0.5000   0.5000  -0.5000   -1.5823958    1.5834685   -1.5823318   0
    3  498.6044800  224.1234160  133.1819357  -0.5000   0.5000  -0.5000   -1.5823958    1.5834685   -1.5823318   0
    3  497.9715753  225.5249843  134.9556208  -0.5000   0.5000  -0.5000   -1.5823958    1.5834685   -1.5823318   0
    3  497.0945921  226.6790743  136.3191981  -0.5000   0.5000  -0.5000   -1.5823958    1.5834685   -1.5823318   0
    3  496.9565152  228.3905441  137.4359238  -0.5000   0.5000  -0.5000   -1.5823958    1.5834685   -1.5823318   0
    3  497.7935760  229.9293794  139.0893574  -0.5000   0.5000  -0.5000   -1.5823958    1.5834685   -1.5823318   0
    3  499.0423020  230.9997382  140.2388668  -0.5000   0.5000  -0.5000   -1.5823958    1.5834685   -1.5823318   0
    3  500.2945480  232.0849956  139.8096344  -0.5000   0.5000  -0.5000   -1.5823958    1.5834685   -1.5823318   0
    3  501.0282554  233.2503733  138.2993082  -0.5000   0.5000  -0.5000   -1.5823958    1.5834685   -1.5823318   0
    3  501.0012156  234.2815744  136.4611910  -0.5000   0.5000  -0.5000   -1.5823958    1.5834685   -1.5823318   0
    3  501.5968633  234.7706042  134.6573652  -0.5000   0.5000  -0.5000   -1.5823958    1.5834685   -1.5823318   0
    3  504.0083124  234.9937187  132.4012501  -0.5000   0.5000  -0.5000   -1.5823958    1.5834685   -1.5823318   0
    4  674.1128095   79.6211393  634.3811072  -0.5000   0.5000  -0.5000   -1.5823958    1.5834685   -1.5823318   0
    4  673.1406415   81.2800720  632.3923168  -0.5000   0.5000  -0.5000   -1.5823958    1.5834685   -1.5823318   0
    4  672.2174122   83.0958897  630.8527550  -0.5000   0.5000  -0.5000   -1.5823958    1.5834685   -1.5823318   0
    4  671.0357453   85.2580420  629.9062071  -0.5000   0.5000  -0.5000   -1.5823958    1.5834685   -1.5823318   0
    4  669.9799749   87.5067969  629.2343125  -0.5000   0.5000  -0.5000   -1.5823958    1.5834685   -1.5823318   0
    4  669.1232424   89.6303140  628.5327929  -0.5000   0.5000  -0.5000   -1.5823958    1.5834685   -1.5823318   0
    4  668.2665632   91.8091079  628.5303787  -0.5000   0.5000  -0.5000   -1.5823958    1.5834685   -1.5823318   0
    4  666.9538463   93.6791314  628.4766649  -0.5000   0.5000  -0.5000   -1.5823958    1.5834685   -1.5823318   0
    4  665.5532145   95.5098014  627.5456358  -0.5000   0.5000  -0.5000   -1.5823958    1.5834685   -1.5823318   0
    4  664.6726110   97.7927434  626.7773880  -0.5000   0.5000  -0.5000   -1.5823958    1.5834685   -1.5823318   0
    4  663.8140180  100.1201552  626.1437550  -0.5000   0.5000  -0.5000   -1.5823958    1.5834685   -1.5823318   0
    4  662.3568157  101.8529961  625.0746484  -0.5000   0.5000  -0.5000   -1.5823958    1.5834685   -1.5823318   0
    4  660.2961847  102.9740209  624.1434211  -0.5000   0.5000  -0.5000   -1.5823958    1.5834685   -1.5823318   0
    4  658.1441901  103.8279450  623.5610141  -0.5000   0.5000  -0.5000   -1.5823958    1.5834685   -1.5823318   0
    4  656.1933263  104.5759901  623.0812308  -0.5000   0.5000  -0.5000   -1.5823958    1.5834685   -1.5823318   0
    4  654.3687300  105.8253648  622.1150526  -0.5000   0.5000  -0.5000   -1.5823958    1.5834685   -1.5823318   0
    4  652.5142689  107.7402366  620.2976587  -0.5000   0.5000  -0.5000   -1.5823958    1.5834685   -1.5823318   0
    4  650.8663844  109.7699861  618.7601886  -0.5000   0.5000  -0.5000   -1.5823958    1.5834685   -1.5823318   0
    4  649.5836860  111.4438342  618.2493302  -0.5000   0.5000  -0.5000   -1.5823958    1.5834685   -1.5823318   0
    4  648.1991410  112.5955971  618.1428258  -0.5000   0.5000  -0.5000   -1.5823958    1.5834685   -1.5823318   0
    4  646.5616146  113.7261099  617.4269243  -0.5000   0.5000  -0.5000   -1.5823958    1.5834685   -1.5823318   0
    4  644.7347383  115.4206535  616.2949143  -0.5000   0.5000  -0.5000   -1.5823958    1.5834685   -1.5823318   0
    4  642.5550416  117.7198154  615.8486428  -0.5000   0.5000  -0.5000   -1.5823958    1.5834685   -1.5823318   0
    5  642.5550416  117.7198154  615.8486428  -0.0000  -0.0000  -1.0000   -0.0002083    0.0025006   -3.1645352   0
    5  643.3585854  119.5650682  615.3654991  -0.0000  -0.0000  -1.0000   -0.0002083    0.0025006   -3.1645352   0
    5  643.5236821  121.3303312  615.2371577  -0.0000  -0.0000  -1.0000   -0.0002083    0.0025006   -3.1645352   0
    5  643.5224785  123.3522031  615.9897811  -0.0000  -0.0000  -1.0000   -0.0002083    0.0025006   -3.1645352   0
    5  644.2696987  125.5857550  617.0941734  -0.0000  -0.0000  -1.0000   -0.0002083    0.0025006   -3.1645352   0
    5  645.6888390  127.3941698  618.1187597  -0.0000  -0.0000  -1.0000   -0.0002083    0.0025006   -3.1645352   0
    5  646.5096697  129.1969205  618.8202484  -0.0000  -0.0000  -1.0000   -0.0002083    0.0025006   -3.1645352   0
    5  646.6863327  131.0784946  619.3552712  -0.0000  -0.0000  -1.0000   -0.0002083    0.0025006   -3.1645352   0
    5  647.2155208  132.8716011  620.4293735  -0.0000  -0.0000  -1.0000   -0.0002083    0.0025006   -3.1645352   0
    5  647.9239247  134.6564690  621.7652394  -0.0000  -0.0000  -1.0000   -0.0002083    0.0025006   -3.1645352   0
    5  648.4509138  136.3325731  623.3093078  -0.0000  -0.0000  -1.0000   -0.0002083    0.0025006   -3.1645352   0
    5  649.1420810  138.3388468  624.4852249  -0.0000  -0.0000  -1.0000   -0.0002083    0.0025006   -3.1645352   0
    5  650.3755980  140.1610222  624.6705318  -0.0000  -0.0000  -1.0000   -0.0002083    0.0025006   -3.1645352   0
    5  652.3621244  140.7531570  625.0811545  -0.0000  -0.0000  -1.0000   -0.0002083    0.0025006   -3.1645352   0
    5  654.6641483  140.0858626  626.2717106  -0.0000  -0.0000  -1.0000   -0.0002083    0.0025006   -3.1645352   0
    5  656.4383677  138.8974393  627.6056955  -0.0000  -0.0000  -1.0000   -0.0002083    0.0025006   -3.1645352   0
    5  657.7529094  137.8930541  628.7325863  -0.0000  -0.0000  -1.0000   -0.0002083    0.0025006   -3.1645352   0
    5  659.1801887  137.3100775  629.5433963  -0.0000  -0.0000  -1.0000   -0.0002083    0.0025006   -3.1645352   0
    5  661.0369371  136.7665687  630.0489591  -0.0000  -0.0000  -1.0000   -0.0002083    0.0025006   -3.1645352   0
    5  662.8869236  136.1459374  630.6526896  -0.0000  -0.0000  -1.0000   -0.0002083    0.0025006   -3.1645352   0
    5  664.4630496  135.7913220  631.4005103  -0.0000  -0.0000  -1.0000   -0.0002083    0.0025006   -3.1645352   0
    5  666.0359348  135.0754803  632.2111369  -0.0000  -0.0000  -1.0000   -0.0002083    0.0025006   -3.1645352   0
    5  667.5309485  133.8020218  633.0827157  -0.0000  -0.0000  -1.0000   -0.0002083    0.0025006   -3.1645352   0
    5  669.3177658  132.8534042  633.3861288  -0.0000  -0.0000  -1.0000   -0.0002083    0.0025006   -3.1645352   0
    5  671.2239821  132.4285032  633.6985755  -0.0000  -0.0000  -1.0000   -0.0002083    0.0025006   -3.1645352   0
    5  672.7334208  131.8553098  634.9047458  -0.0000  -0.0000  -1.0000   -0.0002083    0.0025006   -3.1645352   0
    5  674.3699637  130.5158152  636.1759110  -0.0000  -0.0000  -1.0000   -0.0002083    0.0025006   -3.1645352   0
    5  676.3536732  128.9531232  636.7479552  -0.0000  -0.0000  -1.0000   -0.0002083    0.0025006   -3.1645352   0
    5  678.4651780  128.1581180  637.4303244  -0.0000  -0.0000  -1.0000   -0.0002083    0.0025006   -3.1645352   0
    5  680.6784412  127.3483912  638.4438427  -0.0000  -0.0000  -1.0000   -0.0002083    0.0025006   -3.1645352   0
    5  682.7165623  125.7170169  639.1017183  -0.0000  -0.0000  -1.0000   -0.0002083    0.0025006   -3.1645352   0
    5  684.4849361  124.1749846  639.5658219  -0.0000  -0.0000  -1.0000   -0.0002083    0.0025006   -3.1645352   0
    5  686.0835099  123.0205713  639.5899277  -0.0000  -0.0000  -1.0000   -0.0002083    0.0025006   -3.1645352   0
    5  687.7022868  121.9113156  639.6935320  -0.0000  -0.0000  -1.0000   -0.0002083    0.0025006   -3.1645352   0
    5  689.4974758  120.7354396  640.5183285  -0.0000  -0.0000  -1.0000   -0.0002083    0.0025006   -3.1645352   0
    5  691.4165264  119.2033909  641.3723637  -0.0000  -0.0000  -1.0000   -0.0002083    0.0025006   -3.1645352   0
    5  693.2813918  117.2951123  641.9533344  -0.0000  -0.0000  -1.0000   -0.0002083    0.0025006   -3.1645352   0
    5  694.4319620  115.3197317  642.3776500  -0.0000  -0.0000  -1.0000   -0.0002083    0.0025006   -3.1645352   0
    5  695.1312419  113.4448390  642.9952715  -0.0000  -0.0000  -1.0000   -0.0002083    0.0025006   -3.1645352   0
    5  696.3955356  111.4504601  643.7025823  -0.0000  -0.0000  -1.0000   -0.0002083    0.0025006   -3.1645352   0
    5  697.4515705  109.3983356  644.0406194  -0.0000  -0.0000  -1.0000   -0.0002083    0.0025006   -3.1645352   0
    5  697.1803047  107.0563157  643.9015103  -0.0000  -0.0000  -1.0000   -0.0002083    0.0025006   -3.1645352   0
    5  696.3939573  104.4347519  643.7107657  -0.0000  -0.0000  -1.0000   -0.0002083    0.0025006   -3.1645352   0
    5  695.9353268  102.2647926  643.9169700  -0.0000  -0.0000  -1.0000   -0.0002083    0.0025006   -3.1645352   0
    5  695.6015113  100.0524208  644.0477084  -0.0000  -0.0000  -1.0000   -0.0002083    0.0025006   -3.1645352   0
    6  376.6347858  180.8555715  361.6167144   0.5000  -0.5000  -0.5000    1.5821875   -1.5809679   -1.5822034   0
    6  375.0598194  180.8072866  359.8062046   0.5000  -0.5000  -0.5000    1.5821875   -1.5809679   -1.5822034   0
    6  374.3680934  180.9179767  357.3745121   0.5000  -0.5000  -0.5000    1.5821875   -1.5809679   -1.5822034   0
    6  374.7615501  181.8295926  355.0549750   0.5000  -0.5000  -0.5000    1.5821875   -1.5809679   -1.5822034   0
    6  374.9967712  183.2578103  353.2054214   0.5000  -0.5000  -0.5000    1.5821875   -1.5809679   -1.5822034   0
    6  374.8493934  184.7967360  351.7187238   0.5000  -0.5000  -0.5000    1.5821875   -1.5809679   -1.5822034   0
    6  375.1680929  187.0263862  351.1830497   0.5000  -0.5000  -0.5000    1.5821875   -1.5809679   -1.5822034   0
    6  376.2863290  189.5435747  351.1620656   0.5000  -0.5000  -0.5000    1.5821875   -1.5809679   -1.5822034   0
    6  376.9963235  191.5764961  351.5627384   0.5000  -0.5000  -0.5000    1.5821875   -1.5809679   -1.5822034   0
    6  377.0127800  193.1534775  352.6206761   0.5000  -0.5000  -0.5000    1.5821875   -1.5809679   -1.5822034   0
    6  377.6591269  194.3221766  353.5541367   0.5000  -0.5000  -0.5000    1.5821875   -1.5809679   -1.5822034   0
    6  378.6403211  195.4960417  354.4162404   0.5000  -0.5000  -0.5000    1.5821875   -1.5809679   -1.5822034   0
    6  379.5515463  197.1444612  356.0734014   0.5000  -0.5000  -0.5000    1.5821875   -1.5809679   -1.5822034   0
    6  380.8383437  198.6046805  357.9514178   0.5000  -0.5000  -0.5000    1.5821875   -1.5809679   -1.5822034   0
    6  382.3598896  199.6226485  358.0846751   0.5000  -0.5000  -0.5000    1.5821875   -1.5809679   -1.5822034   0
    6  383.5258027  201.0630379  357.0203588   0.5000  -0.5000  -0.5000    1.5821875   -1.5809679   -1.5822034   0
    6  384.1472932  203.1278223  356.4116438   0.5000  -0.5000  -0.5000    1.5821875   -1.5809679   -1.5822034   0
    6  384.2264758  205.0757896  355.9696729   0.5000  -0.5000  -0.5000    1.5821875   -1.5809679   -1.5822034   0
    6  383.5284134  206.6620222  356.0023270   0.5000  -0.5000  -0.5000    1.5821875   -1.5809679   -1.5822034   0
    6  383.1230001  208.0008443  357.1621185   0.5000  -0.5000  -0.5000    1.5821875   -1.5809679   -1.5822034   0
    6  383.8866224  208.6848433  359.0915804   0.5000  -0.5000  -0.5000    1.5821875   -1.5809679   -1.5822034   0
    6  384.6997847  208.8279717  361.5822078   0.5000  -0.5000  -0.5000    1.5821875   -1.5809679   -1.5822034   0
    6  385.0379857  209.1291041  364.1685689   0.5000  -0.5000  -0.5000    1.5821875   -1.5809679   -1.5822034   0
    6  385.2733577  209.6758395  366.3103048   0.5000  -0.5000  -0.5000    1.5821875   -1.5809679   -1.5822034   0
    6  385.4604509  209.3496533  368.5296205   0.5000  -0.5000  -0.5000    1.5821875   -1.5809679   -1.5822034   0