ITEM: TIMESTEP
0
ITEM: NUMBER OF ATOMS
7529
ITEM: BOX BOUNDS pp pp pp 
0.0 695.687008
0.0 696.888975
0.0 697.913855
ITEM: ATOMS id x y z tbx tby tbz sbx sby sbz loop
    0  452.1920275  505.5941989  544.3280733  -0.5000   0.5000   0.5000   -1.5834328    1.5801230    1.5843256   1
    0  452.4399731  507.3334763  543.6798753  -0.5000   0.5000   0.5000   -1.5834328    1.5801230    1.5843256   1
    0  451.8489176  508.9987659  542.2939151  -0.5000   0.5000   0.5000   -1.5834328    1.5801230    1.5843256   1
    0  451.1403974  510.7591445  541.1162615  -0.5000   0.5000   0.5000   -1.5834328    1.5801230    1.5843256   1
    0  451.5587127  512.9217058  540.2370232  -0.5000   0.5000   0.5000   -1.5834328    1.5801230    1.5843256   1
    0  452.0356993  515.4687360  539.0529708  -0.5000   0.5000   0.5000   -1.5834328    1.5801230    1.5843256   1
    0  450.9656984  517.4577350  537.4715540  -0.5000   0.5000   0.5000   -1.5834328    1.5801230    1.5843256   1
    0  450.1096930  517.8554984  535.9624839  -0.5000   0.5000   0.5000   -1.5834328    1.5801230    1.5843256   1
    0  451.3597109  517.0906287  535.3697366  -0.5000   0.5000   0.5000   -1.5834328    1.5801230    1.5843256   1
    0  453.1959187  517.0479581  536.0822173  -0.5000   0.5000   0.5000   -1.5834328    1.5801230    1.5843256   1
    0  454.2200794  518.1468075  537.8512137  -0.5000   0.5000   0.5000   -1.5834328    1.5801230    1.5843256   1
    0  455.0834552  518.9085907  539.8475638  -0.5000   0.5000   0.5000   -1.5834328    1.5801230    1.5843256   1
    0  455.8728154  518.9526474  542.1660110  -0.5000   0.5000   0.5000   -1.5834328    1.5801230    1.5843256   1
    0  456.1284524  518.3068507  544.5888907  -0.5000   0.5000   0.5000   -1.5834328    1.5801230    1.5843256   1
    0  456.7538516  517.0249930  545.8881630  -0.5000   0.5000   0.5000   -1.5834328    1.5801230    1.5843256   1
    0  458.0333776  515.5091007  546.7101888  -0.5000   0.5000   0.5000   -1.5834328    1.5801230    1.5843256   1
    0  458.9432941  513.8483700  547.6136044  -0.5000   0.5000   0.5000   -1.5834328    1.5801230    1.5843256   1
    0  458.4499607  512.2201187  547.8005527  -0.5000   0.5000   0.5000   -1.5834328    1.5801230    1.5843256   1
    0  456.6275151  510.8513706  547.4595748  -0.5000   0.5000   0.5000   -1.5834328    1.5801230    1.5843256   1
    0  454.6716866  509.7059525  547.0217369  -0.5000   0.5000   0.5000   -1.5834328    1.5801230    1.5843256   1
    0  453.5334772  508.5570484  546.1978165  -0.5000   0.5000   0.5000   -1.5834328    1.5801230    1.5843256   1
    0  452.9182008  507.1386907  545.3350740  -0.5000   0.5000   0.5000   -1.5834328    1.5801230    1.5843256   1
    0  452.1920276  505.5941990  544.3280731  -0.5000   0.5000   0.5000   -1.5834328    1.5801230    1.5843256   1
    1  410.4901429  501.1167857  653.7000715  -1.0000   0.0000   0.0000   -3.1641782   -0.0001822    0.0020704   0
    1  411.1232258  503.0411130  656.0427339  -1.0000   0.0000   0.0000   -3.1641782   -0.0001822    0.0020704   0
    1  411.4984202  504.0985987  657.8085740  -1.0000   0.0000   0.0000   -3.1641782   -0.0001822    0.0020704   0
    1  412.0973750  505.2098720  659.1948959  -1.0000   0.0000   0.0000   -3.1641782   -0.0001822    0.0020704   0
    1  413.1875875  506.4306179  660.5285288  -1.0000   0.0000   0.0000   -3.1641782   -0.0001822    0.0020704   0
    1  414.4795077  507.5678259  661.7500495  -1.0000   0.0000   0.0000   -3.1641782   -0.0001822    0.0020704   0
    1  415.5348553  509.0071238  662.6773605  -1.0000   0.0000   0.0000   -3.1641782   -0.0001822    0.0020704   0
    1  416.4325750  510.5377506  662.9787923  -1.0000   0.0000   0.0000   -3.1641782   -0.0001822    0.0020704   0
    1  417.3032607  512.0177487  663.2048462  -1.0000   0.0000   0.0000   -3.1641782   -0.0001822    0.0020704   0
    1  417.7309018  513.9806529  663.9611631  -1.0000   0.0000   0.0000   -3.1641782   -0.0001822    0.0020704   0
    1  418.4363156  515.9462576  664.4736404  -1.0000   0.0000   0.0000   -3.1641782   -0.0001822    0.0020704   0
    1  420.1558104  517.2048266  663.9047516  -1.0000   0.0000   0.0000   -3.1641782   -0.0001822    0.0020704   0
    1  421.6706081  518.4360400  662.7923542  -1.0000   0.0000   0.0000   -3.1641782   -0.0001822    0.0020704   0
    1  422.7816193  519.8953424  662.6517709  -1.0000   0.0000   0.0000   -3.1641782   -0.0001822    0.0020704   0
    1  424.1489962  521.1046812  663.0281789  -1.0000   0.0000   0.0000   -3.1641782   -0.0001822    0.0020704   0
    1  425.5063363  522.4040379  662.5693113  -1.0000   0.0000   0.0000   -3.1641782   -0.0001822    0.0020704   0
    1  426.8274202  524.0061438  662.1050683  -1.0000   0.0000   0.0000   -3.1641782   -0.0001822    0.0020704   0
    1  428.0834567  525.4227984  662.1118923  -1.0000   0.0000   0.0000   -3.1641782   -0.0001822    0.0020704   0
    1  429.3070351  526.7152527  662.4815738  -1.0000   0.0000   0.0000   -3.1641782   -0.0001822    0.0020704   0
    1  430.2915427  528.1684944  663.2533948  -1.0000   0.0000   0.0000   -3.1641782   -0.0001822    0.0020704   0
    1  430.6073727  529.8897348  663.7652620  -1.0000   0.0000   0.0000   -3.1641782   -0.0001822    0.0020704   0
    1  431.1720782  531.7061127  664.3500154  -1.0000   0.0000   0.0000   -3.1641782   -0.0001822    0.0020704   0
    1  432.3600467  533.2272924  665.5282530  -1.0000   0.0000   0.0000   -3.1641782   -0.0001822    0.0020704   0
    1  433.6362836  534.4304503  666.5730556  -1.0000   0.0000   0.0000   -3.1641782   -0.0001822    0.0020704   0
    1  435.4409768  535.4484189  666.9486887  -1.0000   0.0000   0.0000   -3.1641782   -0.0001822    0.0020704   0
    1  436.7424986  536.8949908  666.9722576  -1.0000   0.0000   0.0000   -3.1641782   -0.0001822    0.0020704   0
    1  436.6233098  539.1485357  666.9545427  -1.0000   0.0000   0.0000   -3.1641782   -0.0001822    0.0020704   0
    1  437.1377252  541.0795113  667.0963453  -1.0000   0.0000   0.0000   -3.1641782   -0.0001822    0.0020704   0
    1  438.9068291  542.2264409  667.0523905  -1.0000   0.0000   0.0000   -3.1641782   -0.0001822    0.0020704   0
    1  440.5519392  543.2749055  666.2916712  -1.0000   0.0000   0.0000   -3.1641782   -0.0001822    0.0020704   0
    1  441.8830130  544.5485407  665.1557085  -1.0000   0.0000   0.0000   -3.1641782   -0.0001822    0.0020704   0
    1  442.9975951  546.1868597  664.2989328  -1.0000   0.0000   0.0000   -3.1641782   -0.0001822    0.0020704   0
    1  444.0224695  547.6936387  664.3317393  -1.0000   0.0000   0.0000   -3.1641782   -0.0001822    0.0020704   0
    1  445.1506319  548.8106466  665.3543610  -1.0000   0.0000   0.0000   -3.1641782   -0.0001822    0.0020704   0
    1  445.9912995  550.3668578  666.3060075  -1.0000   0.0000   0.0000   -3.1641782   -0.0001822    0.0020704   0
    1  446.6708313  552.5788231  665.8135449  -1.0000   0.0000   0.0000   -3.1641782   -0.0001822    0.0020704   0
    1  447.4519939  554.6104793  664.1315354  -1.0000   0.0000   0.0000   -3.1641782   -0.0001822    0.0020704   0
    1  448.6374480  555.8843723  662.8203681  -1.0000   0.0000   0.0000   -3.1641782   -0.0001822    0.0020704   0
    1  450.3385919  557.0003451  662.4057217  -1.0000   0.0000   0.0000   -3.1641782   -0.0001822    0.0020704   0
    1  451.8115860  558.6215035  662.0392462  -1.0000   0.0000   0.0000   -3.1641782   -0.0001822    0.0020704   0
    1  453.3925556  560.1153316  661.4831222  -1.0000   0.0000   0.0000   -3.1641782   -0.0001822    0.0020704   0
    1  455.3891735  561.4755999  660.7687328  -1.0000   0.0000   0.0000   -3.1641782   -0.0001822    0.0020704   0
    1  457.1736210  563.1646417  659.6701975  -1.0000   0.0000   0.0000   -3.1641782   -0.0001822    0.0020704   0
    1  458.7028052  564.6448513  659.0996363  -1.0000   0.0000   0.0000   -3.1641782   -0.0001822    0.0020704   0
    1  459.9574467  565.8192235  659.6859359  -1.0000   0.0000   0.0000   -3.1641782   -0.0001822    0.0020704   0
    1  461.1494151  567.0025702  660.7915735  -1.0000   0.0000   0.0000   -3.1641782   -0.0001822    0.0020704   0
    1  462.2042500  568.1103813  661.9072942  -1.0000   0.0000   0.0000   -3.1641782   -0.0001822    0.0020704   0
    1  462.7337903  569.2642168  663.4310368  -1.0000   0.0000   0.0000   -3.1641782   -0.0001822    0.0020704   0
    1  463.2077944  570.2570485  665.0785591  -1.0000   0.0000   0.0000   -3.1641782   -0.0001822    0.0020704   0
    1  464.1139295  570.5211486  666.4112257  -1.0000   0.0000   0.0000   -3.1641782   -0.0001822    0.0020704   0
    1  465.5704604  569.9181334  668.0028576  -1.0000   0.0000   0.0000   -3.1641782   -0.0001822    0.0020704   0
    1  467.2241356  569.3160150  669.2442172  -1.0000   0.0000   0.0000   -3.1641782   -0.0001822    0.0020704   0
    1  468.5636847  569.9305728  669.9891373  -1.0000   0.0000   0.0000   -3.1641782   -0.0001822    0.0020704   0
    1  469.7313508  571.2004636  671.1704496  -1.0000   0.0000   0.0000   -3.1641782   -0.0001822    0.0020704   0
    1  470.8494362  572.4379321  672.4667779  -1.0000   0.0000   0.0000   -3.1641782   -0.0001822    0.0020704   0
    1  471.4609722  574.1211505  673.2292529  -1.0000   0.0000   0.0000   -3.1641782   -0.0001822    0.0020704   0
    1  472.1013757  575.8905789  673.5112280  -1.0000   0.0000   0.0000   -3.1641782   -0.0001822    0.0020704   0
    1  473.6184299  577.1005979  673.3515014  -1.0000   0.0000   0.0000   -3.1641782   -0.0001822    0.0020704   0
    1  475.2452588  578.1162865  672.5897091  -1.0000   0.0000   0.0000   -3.1641782   -0.0001822    0.0020704   0
    1  476.3157178  579.4865804  672.1005526  -1.0000   0.0000   0.0000   -3.1641782   -0.0001822    0.0020704   0
    1  477.2704693  581.2822325  672.5917748  -1.0000   0.0000   0.0000   -3.1641782   -0.0001822    0.0020704   0
    1  478.8507339  582.7177164  673.3328143  -1.0000   0.0000   0.0000   -3.1641782   -0.0001822    0.0020704   0
    1  480.7779518  583.3149678  673.8867850  -1.0000   0.0000   0.0000   -3.1641782   -0.0001822    0.0020704   0
    1  482.6532749  583.7304445  674.5246549  -1.0000   0.0000   0.0000   -3.1641782   -0.0001822    0.0020704   0
    1  484.7879254  584.5476535  674.8439898  -1.0000   0.0000   0.0000   -3.1641782   -0.0001822    0.0020704   0
    1  486.5838145  585.9966370  674.4611211  -1.0000   0.0000   0.0000   -3.1641782   -0.0001822    0.0020704   0
    1  487.5028627  587.7377196  674.0069822  -1.0000   0.0000   0.0000   -3.1641782   -0.0001822    0.0020704   0
    1  488.3169583  589.1985543  674.2159157  -1.0000   0.0000   0.0000   -3.1641782   -0.0001822    0.0020704   0
    1  489.7722073  590.5347772  674.7303888  -1.0000   0.0000   0.0000   -3.1641782   -0.0001822    0.0020704   0
    1  491.5820242  591.8975721  673.9410647  -1.0000   0.0000   0.0000   -3.1641782   -0.0001822    0.0020704   0
    1  493.3018607  593.2045532  672.2927589  -1.0000   0.0000   0.0000   -3.1641782   -0.0001822    0.0020704   0
    1  494.6826791  594.6602705  671.7562944  -1.0000   0.0000   0.0000   -3.1641782   -0.0001822    0.0020704   0
    1  495.9212222  596.2169297  672.0178479  -1.0000   0.0000   0.0000   -3.1641782   -0.0001822    0.0020704   0
    1  497.7241915  597.1157178  672.0741111  -1.0000   0.0000   0.0000   -3.1641782   -0.0001822    0.0020704   0
    1  499.9441769  597.3862003  671.4822952  -1.0000   0.0000   0.0000   -3.1641782   -0.0001822    0.0020704   0
    1  501.6809512  598.3631741  670.6484359  -1.0000   0.0000   0.0000   -3.1641782   -0.0001822    0.0020704   0
    1  503.0740195  599.7835532  670.2345525  -1.0000   0.0000   0.0000   -3.1641782   -0.0001822    0.0020704   0
    1  504.4870307  600.7857802  670.0906318  -1.0000   0.0000   0.0000   -3.1641782   -0.0001822    0.0020704   0
    1  505.5628083  602.0754620  670.9072705  -1.0000   0.0000   0.0000   -3.1641782   -0.0001822    0.0020704   0
    1  506.5162008  603.6278397  672.6828521  -1.0000   0.0000   0.0000   -3.1641782   -0.0001822    0.0020704   0
    1  507.6448683  604.8446427  674.4163290  -1.0000   0.0000   0.0000   -3.1641782   -0.0001822    0.0020704   0
    1  509.1061670  605.9957453  675.3953391  -1.0000   0.0000   0.0000   -3.1641782   -0.0001822    0.0020704   0
    1  510.7022122  607.5069383  675.4328133  -1.0000   0.0000   0.0000   -3.1641782   -0.0001822    0.0020704   0
    1  512.1657558  609.1650885  674.9915445  -1.0000   0.0000   0.0000   -3.1641782   -0.0001822    0.0020704   0
    1  513.8383449  610.6641091  673.8230267  -1.0000   0.0000   0.0000   -3.1641782   -0.0001822    0.0020704   0
    1  515.6527369  611.6667617  672.4747515  -1.0000   0.0000   0.0000   -3.1641782   -0.0001822    0.0020704   0
    1  517.3470555  611.9740030  671.4090337  -1.0000   0.0000   0.0000   -3.1641782   -0.0001822    0.0020704   0
    1  519.0199633  612.2471525  670.1359552  -1.0000   0.0000   0.0000   -3.1641782   -0.0001822    0.0020704   0
    1  520.8276380  612.1597679  668.9785239  -1.0000   0.0000   0.0000   -3.1641782   -0.0001822    0.0020704   0
    1  522.2849284  611.3431652  667.8367559  -1.0000   0.0000   0.0000   -3.1641782   -0.0001822    0.0020704   0
    1  523.1519451  610.7309287  666.3895211  -1.0000   0.0000   0.0000   -3.1641782   -0.0001822    0.0020704   0
    1  524.3983552  610.6458922  665.0558368  -1.0000   0.0000   0.0000   -3.1641782   -0.0001822    0.0020704   0
    1  525.9330091  610.5836484  663.7939283  -1.0000   0.0000   0.0000   -3.1641782   -0.0001822    0.0020704   0
    1  526.9719539  610.8963726  662.2893699  -1.0000   0.0000   0.0000   -3.1641782   -0.0001822    0.0020704   0
    1  528.3203221  611.8216249  660.9197012  -1.0000   0.0000   0.0000   -3.1641782   -0.0001822    0.0020704   0
    1  530.1915671  612.0175592  659.6514943  -1.0000   0.0000   0.0000   -3.1641782   -0.0001822    0.0020704   0
    1  531.7638352  611.2009656  658.3374634  -1.0000   0.0000   0.0000   -3.1641782   -0.0001822    0.0020704   0
    1  532.9483369  610.1194980  657.1964986  -1.0000   0.0000   0.0000   -3.1641782   -0.0001822    0.0020704   0
    1  533.8004824  609.2169789  655.8859731  -1.0000   0.0000   0.0000   -3.1641782   -0.0001822    0.0020704   0
    1  534.7629708  609.0239342  654.3630966  -1.0000   0.0000   0.0000   -3.1641782   -0.0001822    0.0020704   0
    1  536.3285892  608.8996214  653.0623685  -1.0000   0.0000   0.0000   -3.1641782   -0.0001822    0.0020704   0
    1  537.9337267  608.1185497  651.9511389  -1.0000   0.0000   0.0000   -3.1641782   -0.0001822    0.0020704   0
    1  538.9946448  607.5330175  650.6787119  -1.0000   0.0000   0.0000   -3.1641782   -0.0001822    0.0020704   0
    1  540.1908538  607.7666228  649.3282704  -1.0000   0.0000   0.0000   -3.1641782   -0.0001822    0.0020704   0
    1  541.6578377  607.9717939  647.9654912  -1.0000   0.0000   0.0000   -3.1641782   -0.0001822    0.0020704   0
    1  542.2160014  607.7370059  646.0761432  -1.0000   0.0000   0.0000   -3.1641782   -0.0001822    0.0020704   0
    1  542.5108370  607.6796875  644.0078154  -1.0000   0.0000   0.0000   -3.1641782   -0.0001822    0.0020704   0
    1  543.7798355  607.6461075  642.3419970  -1.0000   0.0000   0.0000   -3.1641782   -0.0001822    0.0020704   0
    1  545.4006132  607.2280459  640.7806343  -1.0000   0.0000   0.0000   -3.1641782   -0.0001822    0.0020704   0
    1  546.5730666  606.9445233  639.3032056  -1.0000   0.0000   0.0000   -3.1641782   -0.0001822    0.0020704   0
    1  547.4923726  607.5591566  638.0703939  -1.0000   0.0000   0.0000   -3.1641782   -0.0001822    0.0020704   0
    1  548.2856769  609.1592615  637.5559098  -1.0000   0.0000   0.0000   -3.1641782   -0.0001822    0.0020704   0
    1  548.9776407  611.0180501  637.5925716  -1.0000   0.0000   0.0000   -3.1641782   -0.0001822    0.0020704   0
    1  550.2946498  612.6491023  637.3570671  -1.0000   0.0000   0.0000   -3.1641782   -0.0001822    0.0020704   0
    1  552.0426961  614.1387600  636.8917691  -1.0000   0.0000   0.0000   -3.1641782   -0.0001822    0.0020704   0
    1  553.3920533  614.9116389  635.7139018  -1.0000   0.0000   0.0000   -3.1641782   -0.0001822    0.0020704   0
    1  554.4368930  614.7721890  633.9337520  -1.0000   0.0000   0.0000   -3.1641782   -0.0001822    0.0020704   0
    1  555.1692614  614.4459852  632.1993613  -1.0000   0.0000   0.0000   -3.1641782   -0.0001822    0.0020704   0
    1  555.8623343  614.1970860  630.5304339  -1.0000   0.0000   0.0000   -3.1641782   -0.0001822    0.0020704   0
    1  557.1046171  613.7934533  629.1011465  -1.0000   0.0000   0.0000   -3.1641782   -0.0001822    0.0020704   0
    1  558.6965391  613.2580981  627.3844206  -1.0000   0.0000   0.0000   -3.1641782   -0.0001822    0.0020704   0
    1  559.7925559  613.5725405  625.2775998  -1.0000   0.0000   0.0000   -3.1641782   -0.0001822    0.0020704   0
    1  560.4461877  615.2251343  624.0274409  -1.0000   0.0000   0.0000   -3.1641782   -0.0001822    0.0020704   0
    1  561.7086498  617.2395307  623.6395321  -1.0000   0.0000   0.0000   -3.1641782   -0.0001822    0.0020704   0
    1  563.2557438  618.5943231  622.6780580  -1.0000   0.0000   0.0000   -3.1641782   -0.0001822    0.0020704   0
    1  564.6372531  618.8107853  621.2338650  -1.0000   0.0000   0.0000   -3.1641782   -0.0001822    0.0020704   0
    1  565.9134226  618.5598295  619.9611871  -1.0000   0.0000   0.0000   -3.1641782   -0.0001822    0.0020704   0
    1  567.1642270  619.1458778  618.6997528  -1.0000   0.0000   0.0000   -3.1641782   -0.0001822    0.0020704   0
    1  568.8964246  619.8688689  617.4321228  -1.0000   0.0000   0.0000   -3.1641782   -0.0001822    0.0020704   0
    1  570.9286513  619.0688217  616.2422094  -1.0000   0.0000   0.0000   -3.1641782   -0.0001822    0.0020704   0
    1  572.6571626  617.3494095  614.8667219  -1.0000   0.0000   0.0000   -3.1641782   -0.0001822    0.0020704   0
    1  573.9452293  616.1415564  613.1957875  -1.0000   0.0000   0.0000   -3.1641782   -0.0001822    0.0020704   0
    1  574.8493537  615.4378720  611.4506714  -1.0000   0.0000   0.0000   -3.1641782   -0.0001822    0.0020704   0
    1  575.4064144  615.2358222  609.3904460  -1.0000   0.0000   0.0000   -3.1641782   -0.0001822    0.0020704   0
    1  576.0489071  615.4814997  607.1574369  -1.0000   0.0000   0.0000   -3.1641782   -0.0001822    0.0020704   0
    1  577.3900242  615.3574624  605.6168507  -1.0000   0.0000   0.0000   -3.1641782   -0.0001822    0.0020704   0
    1  578.8857726  614.5692970  604.5852801  -1.0000   0.0000   0.0000   -3.1641782   -0.0001822    0.0020704   0
    1  579.7119309  613.6893721  602.7814570  -1.0000   0.0000   0.0000   -3.1641782   -0.0001822    0.0020704   0
    1  580.6460486  613.3848798  600.3220703  -1.0000   0.0000   0.0000   -3.1641782   -0.0001822    0.0020704   0
    1  581.8989649  613.3565097  598.3494101  -1.0000   0.0000   0.0000   -3.1641782   -0.0001822    0.0020704   0
    1  582.5549490  613.4945271  596.6326019  -1.0000   0.0000   0.0000   -3.1641782   -0.0001822    0.0020704   0
    1  582.7496469  614.5662884  594.6919523  -1.0000   0.0000   0.0000   -3.1641782   -0.0001822    0.0020704   0
    1  583.0991452  615.7793805  592.7874816  -1.0000   0.0000   0.0000   -3.1641782   -0.0001822    0.0020704   0
    1  584.0672386  616.5016917  591.1449595  -1.0000   0.0000   0.0000   -3.1641782   -0.0001822    0.0020704   0
    1  585.2782738  617.6045315  589.5423720  -1.0000   0.0000   0.0000   -3.1641782   -0.0001822    0.0020704   0
    1  586.4683918  619.1883046  587.8605780  -1.0000   0.0000   0.0000   -3.1641782   -0.0001822    0.0020704   0
    1  588.2776333  621.2311926  586.5298075  -1.0000   0.0000   0.0000   -3.1641782   -0.0001822    0.0020704   0
    2  571.9658333  601.7693889  525.2618889   0.5000  -0.5000  -0.5000    1.5834328   -1.5801230   -1.5843256   0
    2  571.5703567  600.6404812  527.7156349   0.5000  -0.5000  -0.5000    1.5834328   -1.5801230   -1.5843256   0
    2  571.9286711  600.7879972  530.4159428   0.5000  -0.5000  -0.5000    1.5834328   -1.5801230   -1.5843256   0
    2  573.0926393  602.0022909  532.2339283   0.5000  -0.5000  -0.5000    1.5834328   -1.5801230   -1.5843256   0
    2  574.5228044  603.4108457  533.4847145   0.5000  -0.5000  -0.5000    1.5834328   -1.5801230   -1.5843256   0
    2  575.4021613  604.6110631  535.0180285   0.5000  -0.5000  -0.5000    1.5834328   -1.5801230   -1.5843256   0
    2  575.4265024  605.4532014  537.0596869   0.5000  -0.5000  -0.5000    1.5834328   -1.5801230   -1.5843256   0
    2  575.2577275  605.7332821  539.5353462   0.5000  -0.5000  -0.5000    1.5834328   -1.5801230   -1.5843256   0
    2  575.2837488  605.7657460  542.3180350   0.5000  -0.5000  -0.5000    1.5834328   -1.5801230   -1.5843256   0
    2  575.9780640  606.1107255  544.7466973   0.5000  -0.5000  -0.5000    1.5834328   -1.5801230   -1.5843256   0
    2  577.6599351  606.6357444  546.1423447   0.5000  -0.5000  -0.5000    1.5834328   -1.5801230   -1.5843256   0
    2  579.3281099  607.4981971  547.1453373   0.5000  -0.5000  -0.5000    1.5834328   -1.5801230   -1.5843256   0
    2  580.3727173  608.5855459  548.3722561   0.5000  -0.5000  -0.5000    1.5834328   -1.5801230   -1.5843256   0
    2  581.3991320  609.1553533  550.1836074   0.5000  -0.5000  -0.5000    1.5834328   -1.5801230   -1.5843256   0
    2  583.0369073  609.5235363  551.9434980   0.5000  -0.5000  -0.5000    1.5834328   -1.5801230   -1.5843256   0
    2  584.5408221  610.7568029  552.6070236   0.5000  -0.5000  -0.5000    1.5834328   -1.5801230   -1.5843256   0
    2  585.4661585  612.5747049  552.9351420   0.5000  -0.5000  -0.5000    1.5834328   -1.5801230   -1.5843256   0
    2  586.8305039  614.0065135  553.5460132   0.5000  -0.5000  -0.5000    1.5834328   -1.5801230   -1.5843256   0
    2  588.2753061  615.4626779  554.2594828   0.5000  -0.5000  -0.5000    1.5834328   -1.5801230   -1.5843256   0
    2  589.3977310  616.5790745  554.6457492   0.5000  -0.5000  -0.5000    1.5834328   -1.5801230   -1.5843256   0
    2  590.6293705  617.4305624  554.4368266   0.5000  -0.5000  -0.5000    1.5834328   -1.5801230   -1.5843256   0
    2  591.9193399  619.6096189  554.0799026   0.5000  -0.5000  -0.5000    1.5834328   -1.5801230   -1.5843256   0
    3  429.1273750  229.0830750  159.6572250  -0.5000  -0.5000  -0.5000   -1.5807454   -1.5803052   -1.5822552   0
    3  430.6487830  229.3728195  156.5708668  -0.5000  -0.5000  -0.5000   -1.5807454   -1.5803052   -1.5822552   0
    3  431.5365442  230.2579694  154.3750149  -0.5000  -0.5000  -0.5000   -1.5807454   -1.5803052   -1.5822552   0
    3  431.7406608  230.8258811  151.6656088  -0.5000  -0.5000  -0.5000   -1.5807454   -1.5803052   -1.5822552   0
    3  431.6686672  230.7880040  148.2206240  -0.5000  -0.5000  -0.5000   -1.5807454   -1.5803052   -1.5822552   0
    3  431.6425072  230.6602579  144.8390656  -0.5000  -0.5000  -0.5000   -1.5807454   -1.5803052   -1.5822552   0
    3  431.4548236  230.8828738  142.0818687  -0.5000  -0.5000  -0.5000   -1.5807454   -1.5803052   -1.5822552   0
    3  430.8823776  231.8721532  140.4152896  -0.5000  -0.5000  -0.5000   -1.5807454   -1.5803052   -1.5822552   0
    3  430.0266993  233.5227922  139.4072035  -0.5000  -0.5000  -0.5000   -1.5807454   -1.5803052   -1.5822552   0
    3  428.6159643  235.2803965  138.9014320  -0.5000  -0.5000  -0.5000   -1.5807454   -1.5803052   -1.5822552   0
    3  426.4678869  236.4144169  139.1696438  -0.5000  -0.5000  -0.5000   -1.5807454   -1.5803052   -1.5822552   0
    3  423.9909093  237.0999484  139.8110359  -0.5000  -0.5000  -0.5000   -1.5807454   -1.5803052   -1.5822552   0
    3  422.0018270  237.9831738  140.6641146  -0.5000  -0.5000  -0.5000   -1.5807454   -1.5803052   -1.5822552   0
    3  420.1852124  238.5779036  141.5472507  -0.5000  -0.5000  -0.5000   -1.5807454   -1.5803052   -1.5822552   0
    3  417.8255353  238.9943352  141.9156342  -0.5000  -0.5000  -0.5000   -1.5807454   -1.5803052   -1.5822552   0
    3  416.1166323  239.7908377  143.0532797  -0.5000  -0.5000  -0.5000   -1.5807454   -1.5803052   -1.5822552   0
    3  416.0584292  239.9991266  145.6709492  -0.5000  -0.5000  -0.5000   -1.5807454   -1.5803052   -1.5822552   0
    3  417.4114179  239.3025797  147.7862659  -0.5000  -0.5000  -0.5000   -1.5807454   -1.5803052   -1.5822552   0
    3  419.0378503  238.8497350  149.1255854  -0.5000  -0.5000  -0.5000   -1.5807454   -1.5803052   -1.5822552   0
    3  419.5641525  239.3357612  150.4750034  -0.5000  -0.5000  -0.5000   -1.5807454   -1.5803052   -1.5822552   0
    3  418.9923616  240.1702333  151.2733340  -0.5000  -0.5000  -0.5000   -1.5807454   -1.5803052   -1.5822552   0
    3  418.0384694  240.4032097  152.0321741  -0.5000  -0.5000  -0.5000   -1.5807454   -1.5803052   -1.5822552   0
    3  417.2791245  240.2692314  154.0259247  -0.5000  -0.5000  -0.5000   -1.5807454   -1.5803052   -1.5822552   0
    3  417.0003998  239.5220257  156.6321617  -0.5000  -0.5000  -0.5000   -1.5807454   -1.5803052   -1.5822552   0
    3  417.3897656  237.9903794  158.1395946  -0.5000  -0.5000  -0.5000   -1.5807454   -1.5803052   -1.5822552   0
    3  418.3178767  236.6763720  159.1237509  -0.5000  -0.5000  -0.5000   -1.5807454   -1.5803052   -1.5822552   0
    3  419.2776645  235.2471538  160.2339894  -0.5000  -0.5000  -0.5000   -1.5807454   -1.5803052   -1.5822552   0
    3  421.1766077  233.6768248  160.6034501  -0.5000  -0.5000  -0.5000   -1.5807454   -1.5803052   -1.5822552   0
    3  423.7634953  232.7589564  160.1849598  -0.5000  -0.5000  -0.5000   -1.5807454   -1.5803052   -1.5822552   0
    3  425.1392663  231.9318377  159.4610789  -0.5000  -0.5000  -0.5000   -1.5807454   -1.5803052   -1.5822552   0
    3  426.4031656  230.6615259  159.2471222  -0.5000  -0.5000  -0.5000   -1.5807454   -1.5803052   -1.5822552   0
    3  429.1273750  229.0830750  159.6572250  -0.5000  -0.5000  -0.5000   -1.5807454   -1.5803052   -1.5822552   0
    4  674.7155000  124.2052858  609.2950713   0.5000   0.5000  -0.5000    1.5819804    1.5840591   -1.5819457   0
    4  676.4520695  123.9747690  608.6802221   0.5000   0.5000  -0.5000    1.5819804    1.5840591   -1.5819457   0
    4  677.7358774  123.3818807  607.6249145   0.5000   0.5000  -0.5000    1.5819804    1.5840591   -1.5819457   0
    4  679.2404224  122.3548234  606.3342252   0.5000   0.5000  -0.5000    1.5819804    1.5840591   -1.5819457   0
    4  680.7668388  121.0170509  605.7919774   0.5000   0.5000  -0.5000    1.5819804    1.5840591   -1.5819457   0
    4  682.0433915  119.7050179  606.3311639   0.5000   0.5000  -0.5000    1.5819804    1.5840591   -1.5819457   0
    4  683.6322779  119.0656456  606.5111599   0.5000   0.5000  -0.5000    1.5819804    1.5840591   -1.5819457   0
    4  684.7568286  118.7341074  605.2358400   0.5000   0.5000  -0.5000    1.5819804    1.5840591   -1.5819457   0
    4  684.9192335  117.9777508  603.5477302   0.5000   0.5000  -0.5000    1.5819804    1.5840591   -1.5819457   0
    4  685.4397840  116.9911835  602.3635922   0.5000   0.5000  -0.5000    1.5819804    1.5840591   -1.5819457   0
    4  686.9049894  115.6080252  601.5539164   0.5000   0.5000  -0.5000    1.5819804    1.5840591   -1.5819457   0
    4  688.3928962  113.6916570  601.2103115   0.5000   0.5000  -0.5000    1.5819804    1.5840591   -1.5819457   0
    4  689.9674342  112.1597804  601.2171232   0.5000   0.5000  -0.5000    1.5819804    1.5840591   -1.5819457   0
    4  691.7429329  111.6451925  602.0413724   0.5000   0.5000  -0.5000    1.5819804    1.5840591   -1.5819457   0
    4  692.8486829  112.2446500  603.9424844   0.5000   0.5000  -0.5000    1.5819804    1.5840591   -1.5819457   0
    4  693.2424893  112.6654556  604.6248771   0.5000   0.5000  -0.5000    1.5819804    1.5840591   -1.5819457   0
    4  693.9563177  111.9543839  603.2127808   0.5000   0.5000  -0.5000    1.5819804    1.5840591   -1.5819457   0
    4  695.8074720  111.3574638  602.2032554   0.5000   0.5000  -0.5000    1.5819804    1.5840591   -1.5819457   0
    4  697.6889312  110.4664867  602.6365621   0.5000   0.5000  -0.5000    1.5819804    1.5840591   -1.5819457   0
    4  698.6436798  108.3687015  602.8445999   0.5000   0.5000  -0.5000    1.5819804    1.5840591   -1.5819457   0
    4  699.3677766  106.2337430  602.1174988   0.5000   0.5000  -0.5000    1.5819804    1.5840591   -1.5819457   0
    4  700.4210619  104.3570694  601.4642574   0.5000   0.5000  -0.5000    1.5819804    1.5840591   -1.5819457   0
    4  701.7551438  102.2305441  601.8460108   0.5000   0.5000  -0.5000    1.5819804    1.5840591   -1.5819457   0
    4  702.8308140  101.1250712  603.9152002   0.5000   0.5000  -0.5000    1.5819804    1.5840591   -1.5819457   0
    4  703.1437935  102.0734568  606.7136150   0.5000   0.5000  -0.5000    1.5819804    1.5840591   -1.5819457   0
    4  702.6544250  103.8006359  608.3857898   0.5000   0.5000  -0.5000    1.5819804    1.5840591   -1.5819457   0
    4  701.5987199  105.0120282  609.3849554   0.5000   0.5000  -0.5000    1.5819804    1.5840591   -1.5819457   0
    4  700.7826908  106.1908372  610.6293484   0.5000   0.5000  -0.5000    1.5819804    1.5840591   -1.5819457   0
    4  700.9670806  107.6212782  612.1589508   0.5000   0.5000  -0.5000    1.5819804    1.5840591   -1.5819457   0
    4  701.9948231  108.0576983  614.0772783   0.5000   0.5000  -0.5000    1.5819804    1.5840591   -1.5819457   0
    4  703.1269553  107.0662363  615.6853049   0.5000   0.5000  -0.5000    1.5819804    1.5840591   -1.5819457   0
    4  704.2672754  105.7473486  616.8231595   0.5000   0.5000  -0.5000    1.5819804    1.5840591   -1.5819457   0
    4  705.5274392  104.7981309  618.1098836   0.5000   0.5000  -0.5000    1.5819804    1.5840591   -1.5819457   0
    4  706.3401029  104.2524791  620.0788289   0.5000   0.5000  -0.5000    1.5819804    1.5840591   -1.5819457   0
    4  706.2096427  104.6494588  622.6306537   0.5000   0.5000  -0.5000    1.5819804    1.5840591   -1.5819457   0