ITEM: TIMESTEP
0
ITEM: NUMBER OF ATOMS
10321
ITEM: BOX BOUNDS pp pp pp 
0.0 696.329960
0.0 696.529480
0.0 697.562056
ITEM: ATOMS id x y z tbx tby tbz sbx sby sbz loop
    0   42.1517018  129.5986691  126.9922168   0.5000   0.5000  -0.5000    1.5824292    1.5836688   -1.5820853   0
    0   38.6676731  132.7012571  130.9218743   0.5000   0.5000  -0.5000    1.5824292    1.5836688   -1.5820853   0
    0   35.9518267  134.0546376  132.4129490   0.5000   0.5000  -0.5000    1.5824292    1.5836688   -1.5820853   0
    0   33.7380570  134.1578956  132.1589021   0.5000   0.5000  -0.5000    1.5824292    1.5836688   -1.5820853   0
    0   31.7261551  134.4590280  130.8327805   0.5000   0.5000  -0.5000    1.5824292    1.5836688   -1.5820853   0
    0   30.3112435  135.6464299  129.3675773   0.5000   0.5000  -0.5000    1.5824292    1.5836688   -1.5820853   0
    0   29.5178988  136.9756301  127.8495855   0.5000   0.5000  -0.5000    1.5824292    1.5836688   -1.5820853   0
    0   29.3171433  137.4807722  126.1528769   0.5000   0.5000  -0.5000    1.5824292    1.5836688   -1.5820853   0
    0   29.1947292  136.5710684  125.7190864   0.5000   0.5000  -0.5000    1.5824292    1.5836688   -1.5820853   0
    0   29.1340719  134.7546667  125.7339251   0.5000   0.5000  -0.5000    1.5824292    1.5836688   -1.5820853   0
    0   30.1681556  133.4342762  124.9942135   0.5000   0.5000  -0.5000    1.5824292    1.5836688   -1.5820853   0
    0   31.8159873  132.2960521  124.2241178   0.5000   0.5000  -0.5000    1.5824292    1.5836688   -1.5820853   0
    0   32.9249764  130.8727187  123.1131904   0.5000   0.5000  -0.5000    1.5824292    1.5836688   -1.5820853   0
    0   34.0593523  129.6562107  122.0593982   0.5000   0.5000  -0.5000    1.5824292    1.5836688   -1.5820853   0
    0   36.2410039  129.1371593  122.1574819   0.5000   0.5000  -0.5000    1.5824292    1.5836688   -1.5820853   0
    0   38.5172632  128.8045963  122.8719584   0.5000   0.5000  -0.5000    1.5824292    1.5836688   -1.5820853   0
    0   39.5482345  128.0972799  123.9620141   0.5000   0.5000  -0.5000    1.5824292    1.5836688   -1.5820853   0
    0   40.2622280  128.2228955  125.2440831   0.5000   0.5000  -0.5000    1.5824292    1.5836688   -1.5820853   0
    0   41.2635574  129.1219054  126.1155451   0.5000   0.5000  -0.5000    1.5824292    1.5836688   -1.5820853   0
    0   42.1517018  129.5986691  126.9922168   0.5000   0.5000  -0.5000    1.5824292    1.5836688   -1.5820853   0
    1  603.0789197  330.3295982   12.4811500   0.5000   0.5000   0.5000    1.5815389    1.5800157    1.5822839   0
    1  602.8382182  332.7741725   12.5641798   0.5000   0.5000   0.5000    1.5815389    1.5800157    1.5822839   0
    1  602.4343357  335.3080949   13.1632719   0.5000   0.5000   0.5000    1.5815389    1.5800157    1.5822839   0
    1  601.4662176  337.9660603   13.3570680   0.5000   0.5000   0.5000    1.5815389    1.5800157    1.5822839   0
    1  601.0211845  340.4364416   12.8646835   0.5000   0.5000   0.5000    1.5815389    1.5800157    1.5822839   0
    1  603.5398510  343.8943333   11.6126232   0.5000   0.5000   0.5000    1.5815389    1.5800157    1.5822839   0
    2  670.9823889  680.0192777  693.6139444  -0.0000  -0.0000  -1.0000    0.0008903    0.0036531   -3.1643691   0
    2  673.0328204  681.3972299  692.8100127  -0.0000  -0.0000  -1.0000    0.0008903    0.0036531   -3.1643691   0
    2  675.0668696  682.6165383  692.7067053  -0.0000  -0.0000  -1.0000    0.0008903    0.0036531   -3.1643691   0
    2  676.9984209  683.1926973  693.3261776  -0.0000  -0.0000  -1.0000    0.0008903    0.0036531   -3.1643691   0
    2  679.2970861  682.4127534  693.7965762  -0.0000  -0.0000  -1.0000    0.0008903    0.0036531   -3.1643691   0
    2  681.7715663  681.7604188  693.7155317  -0.0000  -0.0000  -1.0000    0.0008903    0.0036531   -3.1643691   0
    2  683.4323912  681.4713797  693.6645251  -0.0000  -0.0000  -1.0000    0.0008903    0.0036531   -3.1643691   0
    2  684.4201334  680.1081666  694.1128847  -0.0000  -0.0000  -1.0000    0.0008903    0.0036531   -3.1643691   0
    3  603.8582143  645.2854285  726.9704777   0.5000  -0.5000  -0.5000    1.5829061   -1.5808335   -1.5823985   0
    3  603.2891999  645.8291883  724.2453153   0.5000  -0.5000  -0.5000    1.5829061   -1.5808335   -1.5823985   0
    3  602.6266439  646.6211145  722.3241216   0.5000  -0.5000  -0.5000    1.5829061   -1.5808335   -1.5823985   0
    3  601.8759592  648.2345340  721.1243624   0.5000  -0.5000  -0.5000    1.5829061   -1.5808335   -1.5823985   0
    3  601.0685094  650.0048580  719.6932462   0.5000  -0.5000  -0.5000    1.5829061   -1.5808335   -1.5823985   0
    3  600.8548555  651.4878488  718.2930954   0.5000  -0.5000  -0.5000    1.5829061   -1.5808335   -1.5823985   0
    3  601.7175197  652.9150807  717.3416049   0.5000  -0.5000  -0.5000    1.5829061   -1.5808335   -1.5823985   0
    3  603.3274108  654.0994501  716.8159165   0.5000  -0.5000  -0.5000    1.5829061   -1.5808335   -1.5823985   0
    3  605.4858345  654.8642331  717.1057256   0.5000  -0.5000  -0.5000    1.5829061   -1.5808335   -1.5823985   0
    3  607.7003108  655.8303767  718.3786217   0.5000  -0.5000  -0.5000    1.5829061   -1.5808335   -1.5823985   0
    3  608.9114570  656.6627768  720.1685735   0.5000  -0.5000  -0.5000    1.5829061   -1.5808335   -1.5823985   0
    3  608.6524240  656.8468792  720.5228991   0.5000  -0.5000  -0.5000    1.5829061   -1.5808335   -1.5823985   0
    3  607.8809333  657.8625349  718.7834714   0.5000  -0.5000  -0.5000    1.5829061   -1.5808335   -1.5823985   0
    3  607.8554734  659.9890617  717.2311981   0.5000  -0.5000  -0.5000    1.5829061   -1.5808335   -1.5823985   0
    3  608.5457120  662.2509632  716.6561193   0.5000  -0.5000  -0.5000    1.5829061   -1.5808335   -1.5823985   0
    3  609.1252769  664.0870917  715.9460752   0.5000  -0.5000  -0.5000    1.5829061   -1.5808335   -1.5823985   0
    3  609.2372207  665.7497259  714.9102056   0.5000  -0.5000  -0.5000    1.5829061   -1.5808335   -1.5823985   0
    3  609.3901765  667.6672997  714.3766025   0.5000  -0.5000  -0.5000    1.5829061   -1.5808335   -1.5823985   0
    3  610.2339931  668.9879915  714.7913252   0.5000  -0.5000  -0.5000    1.5829061   -1.5808335   -1.5823985   0
    3  611.8043014  669.3725411  715.5578271   0.5000  -0.5000  -0.5000    1.5829061   -1.5808335   -1.5823985   0
    3  613.5111606  669.5461917  716.4089136   0.5000  -0.5000  -0.5000    1.5829061   -1.5808335   -1.5823985   0
    3  614.9450226  670.4363162  717.0487048   0.5000  -0.5000  -0.5000    1.5829061   -1.5808335   -1.5823985   0
    3  616.4489181  671.5999179  716.1735388   0.5000  -0.5000  -0.5000    1.5829061   -1.5808335   -1.5823985   0
    3  617.4723637  672.7549211  714.4858209   0.5000  -0.5000  -0.5000    1.5829061   -1.5808335   -1.5823985   0
    3  616.9105112  674.0071058  713.5427631   0.5000  -0.5000  -0.5000    1.5829061   -1.5808335   -1.5823985   0
    3  615.3228062  674.7420272  712.1414117   0.5000  -0.5000  -0.5000    1.5829061   -1.5808335   -1.5823985   0
    3  614.1711628  675.1233843  709.2505478   0.5000  -0.5000  -0.5000    1.5829061   -1.5808335   -1.5823985   0
    3  613.6735308  675.3816118  706.1534482   0.5000  -0.5000  -0.5000    1.5829061   -1.5808335   -1.5823985   0
    3  613.3457493  675.7699388  703.8234777   0.5000  -0.5000  -0.5000    1.5829061   -1.5808335   -1.5823985   0
    3  612.6697307  676.3122604  701.7025466   0.5000  -0.5000  -0.5000    1.5829061   -1.5808335   -1.5823985   0
    3  611.0551531  676.8934112  699.8645352   0.5000  -0.5000  -0.5000    1.5829061   -1.5808335   -1.5823985   0
    3  609.3544611  677.6537452  698.7706119   0.5000  -0.5000  -0.5000    1.5829061   -1.5808335   -1.5823985   0
    3  608.2470981  677.6238593  698.0229198   0.5000  -0.5000  -0.5000    1.5829061   -1.5808335   -1.5823985   0
    3  607.2731494  676.5658985  697.0100385   0.5000  -0.5000  -0.5000    1.5829061   -1.5808335   -1.5823985   0
    3  606.3725673  676.5691981  695.6705475   0.5000  -0.5000  -0.5000    1.5829061   -1.5808335   -1.5823985   0
    3  605.3977778  677.6262740  694.1014960   0.5000  -0.5000  -0.5000    1.5829061   -1.5808335   -1.5823985   0
    3  604.5831299  678.4487389  691.9206318   0.5000  -0.5000  -0.5000    1.5829061   -1.5808335   -1.5823985   0
    3  603.9373071  679.2535740  689.7229113   0.5000  -0.5000  -0.5000    1.5829061   -1.5808335   -1.5823985   0
    3  602.8747282  680.0700262  688.3591020   0.5000  -0.5000  -0.5000    1.5829061   -1.5808335   -1.5823985   0
    3  601.9731105  680.6563209  686.7331559   0.5000  -0.5000  -0.5000    1.5829061   -1.5808335   -1.5823985   0
    3  601.6709526  681.2285373  684.1873414   0.5000  -0.5000  -0.5000    1.5829061   -1.5808335   -1.5823985   0
    3  601.8317823  682.6066072  682.2428897   0.5000  -0.5000  -0.5000    1.5829061   -1.5808335   -1.5823985   0
    3  603.0098439  684.2587378  681.4940495   0.5000  -0.5000  -0.5000    1.5829061   -1.5808335   -1.5823985   0
    3  605.0402894  685.2699158  680.9434068   0.5000  -0.5000  -0.5000    1.5829061   -1.5808335   -1.5823985   0
    3  606.5022972  686.6982315  680.2885832   0.5000  -0.5000  -0.5000    1.5829061   -1.5808335   -1.5823985   0
    3  607.5432900  688.1970181  679.7860169   0.5000  -0.5000  -0.5000    1.5829061   -1.5808335   -1.5823985   0
    3  609.2325802  688.3000956  680.0683405   0.5000  -0.5000  -0.5000    1.5829061   -1.5808335   -1.5823985   0
    3  610.8574319  687.7551213  681.7839256   0.5000  -0.5000  -0.5000    1.5829061   -1.5808335   -1.5823985   0
    3  611.6477362  687.3841459  684.3298893   0.5000  -0.5000  -0.5000    1.5829061   -1.5808335   -1.5823985   0
    3  612.0657665  686.9072572  686.7433351   0.5000  -0.5000  -0.5000    1.5829061   -1.5808335   -1.5823985   0
    3  612.6753648  686.2170977  688.7974881   0.5000  -0.5000  -0.5000    1.5829061   -1.5808335   -1.5823985   0
    3  614.0565639  685.7360130  690.5342331   0.5000  -0.5000  -0.5000    1.5829061   -1.5808335   -1.5823985   0
    3  616.2330681  686.0287449  691.6478408   0.5000  -0.5000  -0.5000    1.5829061   -1.5808335   -1.5823985   0
    3  618.4912783  686.9928658  691.8282194   0.5000  -0.5000  -0.5000    1.5829061   -1.5808335   -1.5823985   0
    3  620.2291580  687.4099712  691.9964602   0.5000  -0.5000  -0.5000    1.5829061   -1.5808335   -1.5823985   0
    3  620.8944401  687.1171530  693.9963849   0.5000  -0.5000  -0.5000    1.5829061   -1.5808335   -1.5823985   0
    3  621.3184676  687.1578825  697.0293484   0.5000  -0.5000  -0.5000    1.5829061   -1.5808335   -1.5823985   0
    3  622.7437196  687.7421948  698.6970624   0.5000  -0.5000  -0.5000    1.5829061   -1.5808335   -1.5823985   0
    3  624.6548294  688.9017413  698.5939661   0.5000  -0.5000  -0.5000    1.5829061   -1.5808335   -1.5823985   0
    3  626.0554559  690.8677463  697.4358118   0.5000  -0.5000  -0.5000    1.5829061   -1.5808335   -1.5823985   0
    3  626.6891050  692.9307407  695.9961774   0.5000  -0.5000  -0.5000    1.5829061   -1.5808335   -1.5823985   0
    3  626.8989638  694.2406155  694.8434887   0.5000  -0.5000  -0.5000    1.5829061   -1.5808335   -1.5823985   0
    3  627.1897058  695.3988889  693.9658042   0.5000  -0.5000  -0.5000    1.5829061   -1.5808335   -1.5823985   0
    3  627.9369297  696.4361360  693.0834070   0.5000  -0.5000  -0.5000    1.5829061   -1.5808335   -1.5823985   0
    3  629.2272273  697.1321836  692.2291470   0.5000  -0.5000  -0.5000    1.5829061   -1.5808335   -1.5823985   0
    3  631.0542753  697.9983283  691.4175949   0.5000  -0.5000  -0.5000    1.5829061   -1.5808335   -1.5823985   0
    3  632.8086568  699.2079900  690.3626189   0.5000  -0.5000  -0.5000    1.5829061   -1.5808335   -1.5823985   0
    3  633.4977219  700.5189788  688.5381505   0.5000  -0.5000  -0.5000    1.5829061   -1.5808335   -1.5823985   0
    3  633.5449979  701.5632162  686.1687559   0.5000  -0.5000  -0.5000    1.5829061   -1.5808335   -1.5823985   0
    3  634.3765517  702.4961807  684.5915690   0.5000  -0.5000  -0.5000    1.5829061   -1.5808335   -1.5823985   0
    3  636.9112009  703.0907203  684.1087886   0.5000  -0.5000  -0.5000    1.5829061   -1.5808335   -1.5823985   0
    3  640.1751473  703.2876070  684.1059429   0.5000  -0.5000  -0.5000    1.5829061   -1.5808335   -1.5823985   0
    3  642.5797139  703.6288536  684.3186004   0.5000  -0.5000  -0.5000    1.5829061   -1.5808335   -1.5823985   0
    3  644.2935881  703.6870411  683.7640731   0.5000  -0.5000  -0.5000    1.5829061   -1.5808335   -1.5823985   0
    3  645.6368780  702.8191919  682.1422098   0.5000  -0.5000  -0.5000    1.5829061   -1.5808335   -1.5823985   0
    3  646.6535733  702.0655792  681.4704942   0.5000  -0.5000  -0.5000    1.5829061   -1.5808335   -1.5823985   0
    3  647.9369148  701.9305509  682.2952163   0.5000  -0.5000  -0.5000    1.5829061   -1.5808335   -1.5823985   0
    3  649.7365771  701.0274167  683.1765998   0.5000  -0.5000  -0.5000    1.5829061   -1.5808335   -1.5823985   0
    3  652.0595896  699.6923054  683.7351628   0.5000  -0.5000  -0.5000    1.5829061   -1.5808335   -1.5823985   0
    3  654.6178427  698.5930568  683.6512687   0.5000  -0.5000  -0.5000    1.5829061   -1.5808335   -1.5823985   0
    3  656.6738602  697.1767116  683.4218010   0.5000  -0.5000  -0.5000    1.5829061   -1.5808335   -1.5823985   0
    3  657.9092085  695.7515444  684.0133377   0.5000  -0.5000  -0.5000    1.5829061   -1.5808335   -1.5823985   0
    3  658.0127447  694.2780813  684.3577720   0.5000  -0.5000  -0.5000    1.5829061   -1.5808335   -1.5823985   0
    3  657.5242293  691.7941390  683.6811428   0.5000  -0.5000  -0.5000    1.5829061   -1.5808335   -1.5823985   0
    3  656.9998909  688.8606275  682.4031936   0.5000  -0.5000  -0.5000    1.5829061   -1.5808335   -1.5823985   0
    3  656.6638490  687.3970191  681.3951231   0.5000  -0.5000  -0.5000    1.5829061   -1.5808335   -1.5823985   0
    3  657.3554315  686.5781468  681.9040678   0.5000  -0.5000  -0.5000    1.5829061   -1.5808335   -1.5823985   0
    3  658.4272897  684.9488421  683.5873871   0.5000  -0.5000  -0.5000    1.5829061   -1.5808335   -1.5823985   0
    3  659.9031473  683.6373704  684.9423882   0.5000  -0.5000  -0.5000    1.5829061   -1.5808335   -1.5823985   0
    3  662.0855970  683.0826971  685.7954988   0.5000  -0.5000  -0.5000    1.5829061   -1.5808335   -1.5823985   0
    3  663.7523671  682.1882395  686.6123562   0.5000  -0.5000  -0.5000    1.5829061   -1.5808335   -1.5823985   0
    3  664.8182349  681.0321417  687.4993942   0.5000  -0.5000  -0.5000    1.5829061   -1.5808335   -1.5823985   0
    3  665.8107811  680.1580073  688.8414401   0.5000  -0.5000  -0.5000    1.5829061   -1.5808335   -1.5823985   0
    3  666.6365071  679.6216334  690.3629204   0.5000  -0.5000  -0.5000    1.5829061   -1.5808335   -1.5823985   0
    3  668.0399617  679.7878787  691.8547636   0.5000  -0.5000  -0.5000    1.5829061   -1.5808335   -1.5823985   0
    3  670.9823889  680.0192777  693.6139444   0.5000  -0.5000  -0.5000    1.5829061   -1.5808335   -1.5823985   0
    4  547.0300522  657.2006937  661.5692390   0.5000  -0.5000  -0.5000    1.5829061   -1.5808335   -1.5823985   0
    4  547.9488615  655.4760396  665.5353095   0.5000  -0.5000  -0.5000    1.5829061   -1.5808335   -1.5823985   0
    4  549.5671899  655.1741162  667.2502822   0.5000  -0.5000  -0.5000    1.5829061   -1.5808335   -1.5823985   0
    4  551.8777432  655.1788962  667.9164359   0.5000  -0.5000  -0.5000    1.5829061   -1.5808335   -1.5823985   0
    4  554.0166585  654.8791676  668.8817101   0.5000  -0.5000  -0.5000    1.5829061   -1.5808335   -1.5823985   0
    4  555.7790839  654.2729011  669.8608892   0.5000  -0.5000  -0.5000    1.5829061   -1.5808335   -1.5823985   0
    4  556.9839932  653.3840234  671.1807219   0.5000  -0.5000  -0.5000    1.5829061   -1.5808335   -1.5823985   0
    4  557.4334553  652.4891555  673.2754508   0.5000  -0.5000  -0.5000    1.5829061   -1.5808335   -1.5823985   0
    4  558.0739857  651.7764146  675.1827418   0.5000  -0.5000  -0.5000    1.5829061   -1.5808335   -1.5823985   0
    4  559.1084737  652.1807451  676.5423990   0.5000  -0.5000  -0.5000    1.5829061   -1.5808335   -1.5823985   0
    4  559.7475572  653.3355785  678.1053862   0.5000  -0.5000  -0.5000    1.5829061   -1.5808335   -1.5823985   0
    4  560.5319520  653.5186096  679.9022468   0.5000  -0.5000  -0.5000    1.5829061   -1.5808335   -1.5823985   0
    4  561.9976273  652.6659839  681.5880323   0.5000  -0.5000  -0.5000    1.5829061   -1.5808335   -1.5823985   0
    4  563.0237270  651.8999316  682.9043866   0.5000  -0.5000  -0.5000    1.5829061   -1.5808335   -1.5823985   0
    4  563.1870336  652.5557952  683.1220257   0.5000  -0.5000  -0.5000    1.5829061   -1.5808335   -1.5823985   0
    4  564.2293183  654.4782102  682.6031151   0.5000  -0.5000  -0.5000    1.5829061   -1.5808335   -1.5823985   0
    4  566.2267478  656.3602185  682.2491198   0.5000  -0.5000  -0.5000    1.5829061   -1.5808335   -1.5823985   0
    4  567.2956907  657.9682667  681.1188145   0.5000  -0.5000  -0.5000    1.5829061   -1.5808335   -1.5823985   0
    4  568.3867809  658.9482281  679.4963175   0.5000  -0.5000  -0.5000    1.5829061   -1.5808335   -1.5823985   0
    4  569.6737333  659.3595191  679.0959814   0.5000  -0.5000  -0.5000    1.5829061   -1.5808335   -1.5823985   0
    4  569.1105557  660.0596657  678.5621469   0.5000  -0.5000  -0.5000    1.5829061   -1.5808335   -1.5823985   0
    4  568.1083130  661.2492014  676.5807890   0.5000  -0.5000  -0.5000    1.5829061   -1.5808335   -1.5823985   0
    4  568.3968688  662.5383087  674.6377093   0.5000  -0.5000  -0.5000    1.5829061   -1.5808335   -1.5823985   0
    4  569.4636562  663.8573798  673.6408184   0.5000  -0.5000  -0.5000    1.5829061   -1.5808335   -1.5823985   0
    4  570.9315485  665.5024248  673.1159453   0.5000  -0.5000  -0.5000    1.5829061   -1.5808335   -1.5823985   0
    4  572.1262886  667.3955833  672.1985551   0.5000  -0.5000  -0.5000    1.5829061   -1.5808335   -1.5823985   0
    4  572.0747373  669.2713339  671.0243370   0.5000  -0.5000  -0.5000    1.5829061   -1.5808335   -1.5823985   0
    4  571.1715096  670.4834404  669.9301371   0.5000  -0.5000  -0.5000    1.5829061   -1.5808335   -1.5823985   0
    4  571.2099388  670.7142866  668.9086572   0.5000  -0.5000  -0.5000    1.5829061   -1.5808335   -1.5823985   0
    4  572.5418214  670.3505790  668.8977285   0.5000  -0.5000  -0.5000    1.5829061   -1.5808335   -1.5823985   0
    4  574.2844306  669.5306143  669.6108389   0.5000  -0.5000  -0.5000    1.5829061   -1.5808335   -1.5823985   0
    4  576.0963191  668.7730342  670.1560727   0.5000  -0.5000  -0.5000    1.5829061   -1.5808335   -1.5823985   0
    4  577.6708781  668.8024933  670.9886528   0.5000  -0.5000  -0.5000    1.5829061   -1.5808335   -1.5823985   0
    4  579.2589390  669.5364629  671.9152291   0.5000  -0.5000  -0.5000    1.5829061   -1.5808335   -1.5823985   0
    4  581.7761589  669.9603760  672.3026236   0.5000  -0.5000  -0.5000    1.5829061   -1.5808335   -1.5823985   0
    4  584.7180422  670.0870834  672.8487240   0.5000  -0.5000  -0.5000    1.5829061   -1.5808335   -1.5823985   0
    4  586.9004499  670.6208119  673.5927231   0.5000  -0.5000  -0.5000    1.5829061   -1.5808335   -1.5823985   0
    4  588.4330588  671.5699595  673.7950586   0.5000  -0.5000  -0.5000    1.5829061   -1.5808335   -1.5823985   0
    4  588.7995367  673.3752446  673.1251277   0.5000  -0.5000  -0.5000    1.5829061   -1.5808335   -1.5823985   0
    4  587.5749933  675.2176887  672.1627555   0.5000  -0.5000  -0.5000    1.5829061   -1.5808335   -1.5823985   0
    4  587.2326293  675.0242774  672.5180868   0.5000  -0.5000  -0.5000    1.5829061   -1.5808335   -1.5823985   0
    4  589.2148791  673.6719893  673.8094124   0.5000  -0.5000  -0.5000    1.5829061   -1.5808335   -1.5823985   0
    4  591.2997044  672.8522326  674.8096235   0.5000  -0.5000  -0.5000    1.5829061   -1.5808335   -1.5823985   0
    4  592.6736527  672.0182460  675.0075370   0.5000  -0.5000  -0.5000    1.5829061   -1.5808335   -1.5823985   0
    4  594.5890051  671.8634953  674.8601317   0.5000  -0.5000  -0.5000    1.5829061   -1.5808335   -1.5823985   0
    4  596.7980074  672.5303427  675.0349291   0.5000  -0.5000  -0.5000    1.5829061   -1.5808335   -1.5823985   0
    4  598.5458473  672.0839792  675.3536522   0.5000  -0.5000  -0.5000    1.5829061   -1.5808335   -1.5823985   0
    4  599.5120558  670.3164526  675.8276758   0.5000  -0.5000  -0.5000    1.5829061   -1.5808335   -1.5823985   0
    4  599.6538174  668.2016464  675.9802838   0.5000  -0.5000  -0.5000    1.5829061   -1.5808335   -1.5823985   0
    4  599.3492683  665.4754735  675.7408152   0.5000  -0.5000  -0.5000    1.5829061   -1.5808335   -1.5823985   0
    4  598.7195276  662.3234150  675.1975540   0.5000  -0.5000  -0.5000    1.5829061   -1.5808335   -1.5823985   0
    4  598.0093158  660.1608125  674.2610127   0.5000  -0.5000  -0.5000    1.5829061   -1.5808335   -1.5823985   0
    4  597.6561130  658.9534764  674.2675097   0.5000  -0.5000  -0.5000    1.5829061   -1.5808335   -1.5823985   0
    4  597.6637778  657.6216381  675.7988729   0.5000  -0.5000  -0.5000    1.5829061   -1.5808335   -1.5823985   0
    4  598.0775030  656.1855683  677.5500805   0.5000  -0.5000  -0.5000    1.5829061   -1.5808335   -1.5823985   0
    4  598.6526831  654.2774084  678.5066928   0.5000  -0.5000  -0.5000    1.5829061   -1.5808335   -1.5823985   0
    4  598.9105357  651.4319624  678.9531645   0.5000  -0.5000  -0.5000    1.5829061   -1.5808335   -1.5823985   0
    4  598.9302086  649.1737139  680.1197138   0.5000  -0.5000  -0.5000    1.5829061   -1.5808335   -1.5823985   0
    4  598.7451300  647.1318943  681.5003283   0.5000  -0.5000  -0.5000    1.5829061   -1.5808335   -1.5823985   0
    4  598.4243029  644.5472108  682.6195567   0.5000  -0.5000  -0.5000    1.5829061   -1.5808335   -1.5823985   0
    4  597.8918918  642.9607373  684.3422867   0.5000  -0.5000  -0.5000    1.5829061   -1.5808335   -1.5823985   0
    4  597.1041412  641.8791564  686.3971188   0.5000  -0.5000  -0.5000    1.5829061   -1.5808335   -1.5823985   0
    4  596.3564023  640.3732315  688.3911098   0.5000  -0.5000  -0.5000    1.5829061   -1.5808335   -1.5823985   0
    4  596.1408825  638.9427172  690.2742713   0.5000  -0.5000  -0.5000    1.5829061   -1.5808335   -1.5823985   0
    4  595.9491563  637.7037495  692.0326652   0.5000  -0.5000  -0.5000    1.5829061   -1.5808335   -1.5823985   0
    4  594.5977699  636.2291367  693.1366011   0.5000  -0.5000  -0.5000    1.5829061   -1.5808335   -1.5823985   0
    4  593.7805609  635.1250725  693.7667141   0.5000  -0.5000  -0.5000    1.5829061   -1.5808335   -1.5823985   0
    4  594.5056971  635.1117952  695.0573656   0.5000  -0.5000  -0.5000    1.5829061   -1.5808335   -1.5823985   0
    4  595.0860922  635.5474441  696.6906494   0.5000  -0.5000  -0.5000    1.5829061   -1.5808335   -1.5823985   0
    4  595.5357817  636.0482027  698.1844687   0.5000  -0.5000  -0.5000    1.5829061   -1.5808335   -1.5823985   0
    4  596.7357849  636.2958870  699.9864368   0.5000  -0.5000  -0.5000    1.5829061   -1.5808335   -1.5823985   0
    4  598.0925865  636.4795380  702.0146461   0.5000  -0.5000  -0.5000    1.5829061   -1.5808335   -1.5823985   0
    4  598.8707074  636.7554647  704.0268142   0.5000  -0.5000  -0.5000    1.5829061   -1.5808335   -1.5823985   0
    4  599.5337796  636.4775489  705.9006661   0.5000  -0.5000  -0.5000    1.5829061   -1.5808335   -1.5823985   0
    4  599.9609894  635.6999090  707.7431935   0.5000  -0.5000  -0.5000    1.5829061   -1.5808335   -1.5823985   0
    4  599.6968441  634.3611333  709.4254367   0.5000  -0.5000  -0.5000    1.5829061   -1.5808335   -1.5823985   0
    4  599.0713512  632.4050790  710.3642298   0.5000  -0.5000  -0.5000    1.5829061   -1.5808335   -1.5823985   0
    4  598.0262751  630.6247087  711.2015343   0.5000  -0.5000  -0.5000    1.5829061   -1.5808335   -1.5823985   0
    4  596.6826718  629.5228882  712.6675499   0.5000  -0.5000  -0.5000    1.5829061   -1.5808335   -1.5823985   0
    4  596.0484787  629.1468623  714.6876999   0.5000  -0.5000  -0.5000    1.5829061   -1.5808335   -1.5823985   0
    4  595.1247352  629.2208604  716.7195845   0.5000  -0.5000  -0.5000    1.5829061   -1.5808335   -1.5823985   0
    4  592.8764261  629.3698078  717.6394648   0.5000  -0.5000  -0.5000    1.5829061   -1.5808335   -1.5823985   0
    4  592.8460886  629.2949371  717.4961133   0.5000  -0.5000  -0.5000    1.5829061   -1.5808335   -1.5823985   0
    4  595.7843035  629.0356568  718.1531559   0.5000  -0.5000  -0.5000    1.5829061   -1.5808335   -1.5823985   0
    4  597.9747099  629.3670816  720.4948044   0.5000  -0.5000  -0.5000    1.5829061   -1.5808335   -1.5823985   0
    4  598.7730049  630.5491749  722.4811805   0.5000  -0.5000  -0.5000    1.5829061   -1.5808335   -1.5823985   0
    4  598.9230730  632.0641219  722.4669518   0.5000  -0.5000  -0.5000    1.5829061   -1.5808335   -1.5823985   0
    4  598.8000355  633.5288000  721.2629739   0.5000  -0.5000  -0.5000    1.5829061   -1.5808335   -1.5823985   0
    4  599.0648403  635.1304412  719.9307468   0.5000  -0.5000  -0.5000    1.5829061   -1.5808335   -1.5823985   0
    4  600.0278950  636.7179228  719.2955211   0.5000  -0.5000  -0.5000    1.5829061   -1.5808335   -1.5823985   0
    4  601.1197134  638.0834783  719.9474200   0.5000  -0.5000  -0.5000    1.5829061   -1.5808335   -1.5823985   0
    4  601.7963858  639.5220109  721.2713156   0.5000  -0.5000  -0.5000    1.5829061   -1.5808335   -1.5823985   0
    4  602.4030737  641.3026155  722.1275297   0.5000  -0.5000  -0.5000    1.5829061   -1.5808335   -1.5823985   0
    4  603.1252718  643.5033592  722.6027185   0.5000  -0.5000  -0.5000    1.5829061   -1.5808335   -1.5823985   0
    4  604.2308132  645.2475444  723.9878586   0.5000  -0.5000  -0.5000    1.5829061   -1.5808335   -1.5823985   0
    4  605.4301428  646.1854286  726.8416849   0.5000  -0.5000  -0.5000    1.5829061   -1.5808335   -1.5823985   0
    5  523.8910793  249.3250714  192.8648571  -0.0000  -0.0000   1.0000   -0.0008903   -0.0036531    3.1643691   0
    5  524.8983244  247.9246233  190.8091331  -0.0000  -0.0000   1.0000   -0.0008903   -0.0036531    3.1643691   0
    5  526.2182453  247.6347912  190.0197117  -0.0000  -0.0000   1.0000   -0.0008903   -0.0036531    3.1643691   0
    5  527.6606343  248.2370577  189.9178118  -0.0000  -0.0000   1.0000   -0.0008903   -0.0036531    3.1643691   0
    5  529.7037268  248.8865609  189.2161721  -0.0000  -0.0000   1.0000   -0.0008903   -0.0036531    3.1643691   0
    5  531.9956378  249.6629603  188.1929881  -0.0000  -0.0000   1.0000   -0.0008903   -0.0036531    3.1643691   0
    5  534.2140365  250.2877427  187.8080775  -0.0000  -0.0000   1.0000   -0.0008903   -0.0036531    3.1643691   0
    5  536.1150658  250.0972208  187.5658333  -0.0000  -0.0000   1.0000   -0.0008903   -0.0036531    3.1643691   0
    5  537.7623889  249.3969459  186.8034941  -0.0000  -0.0000   1.0000   -0.0008903   -0.0036531    3.1643691   0
    5  539.7742384  249.3259912  185.6297778  -0.0000  -0.0000   1.0000   -0.0008903   -0.0036531    3.1643691   0
    5  541.7764898  250.1864532  184.5231214  -0.0000  -0.0000   1.0000   -0.0008903   -0.0036531    3.1643691   0
    5  543.8659767  250.7934225  184.0514401  -0.0000  -0.0000   1.0000   -0.0008903   -0.0036531    3.1643691   0
    5  546.0786842  250.7182178  183.4929079  -0.0000  -0.0000   1.0000   -0.0008903   -0.0036531    3.1643691   0
    5  548.0219132  250.5499221  182.4177751  -0.0000  -0.0000   1.0000   -0.0008903   -0.0036531    3.1643691   0
    5  550.0192331  250.8758177  181.4920813  -0.0000  -0.0000   1.0000   -0.0008903   -0.0036531    3.1643691   0
    5  551.7355833  251.9631739  180.3940563  -0.0000  -0.0000   1.0000   -0.0008903   -0.0036531    3.1643691   0
    5  552.2683335  253.5557155  178.8525353  -0.0000  -0.0000   1.0000   -0.0008903   -0.0036531    3.1643691   0
    5  551.6978096  255.4776643  177.8312532  -0.0000  -0.0000   1.0000   -0.0008903   -0.0036531    3.1643691   0
    5  551.6379020  257.1636366  177.5838341  -0.0000  -0.0000   1.0000   -0.0008903   -0.0036531    3.1643691   0
    5  553.0108149  258.0080138  176.8049969  -0.0000  -0.0000   1.0000   -0.0008903   -0.0036531    3.1643691   0
    5  555.0680219  258.3180021  175.1842410  -0.0000  -0.0000   1.0000   -0.0008903   -0.0036531    3.1643691   0
    5  556.8756883  258.0844752  173.6539436  -0.0000  -0.0000   1.0000   -0.0008903   -0.0036531    3.1643691   0
    5  558.3221112  257.2342924  172.4737237  -0.0000  -0.0000   1.0000   -0.0008903   -0.0036531    3.1643691   0
    5  560.1680045  256.5908713  171.8855892  -0.0000  -0.0000   1.0000   -0.0008903   -0.0036531    3.1643691   0
    5  562.2497062  256.4576418  172.0318436  -0.0000  -0.0000   1.0000   -0.0008903   -0.0036531    3.1643691   0
    5  564.0935659  256.3760468  172.0722558  -0.0000  -0.0000   1.0000   -0.0008903   -0.0036531    3.1643691   0
    5  565.6691872  256.3721827  171.2038363  -0.0000  -0.0000   1.0000   -0.0008903   -0.0036531    3.1643691   0
    5  566.8981429  256.7434714  169.5079221  -0.0000  -0.0000   1.0000   -0.0008903   -0.0036531    3.1643691   0
    5  568.1164492  257.5926367  167.4947064  -0.0000  -0.0000   1.0000   -0.0008903   -0.0036531    3.1643691   0
    5  569.4545833  258.8841666  165.6626944  -0.0000  -0.0000   1.0000   -0.0008903   -0.0036531    3.1643691   0
    6  672.8458889  145.5656667  642.3582777  -0.0000  -0.0000  -1.0000    0.0008903    0.0036531   -3.1643691   0
    6  674.1772474  148.1581199  643.1129548  -0.0000  -0.0000  -1.0000    0.0008903    0.0036531   -3.1643691   0
    6  676.0578610  149.6467180  643.7549268  -0.0000  -0.0000  -1.0000    0.0008903    0.0036531   -3.1643691   0