ITEM: TIMESTEP
0
ITEM: NUMBER OF ATOMS
9863
ITEM: BOX BOUNDS pp pp pp 
0.0 696.283297
0.0 696.506047
0.0 697.597452
ITEM: ATOMS id x y z tbx tby tbz sbx sby sbz loop
    0  108.7387517   43.6821330  537.0953164  -0.5000   0.5000  -0.5000   -1.5819725    1.5843936   -1.5819473   1
    0  107.3913314   42.8269678  537.8437957  -0.5000   0.5000  -0.5000   -1.5819725    1.5843936   -1.5819473   1
    0  105.7718610   40.7970127  538.1900607  -0.5000   0.5000  -0.5000   -1.5819725    1.5843936   -1.5819473   1
    0  105.0130683   38.6212312  537.7489786  -0.5000   0.5000  -0.5000   -1.5819725    1.5843936   -1.5819473   1
    0  105.0322572   37.2105093  536.3233227  -0.5000   0.5000  -0.5000   -1.5819725    1.5843936   -1.5819473   1
    0  106.0841932   36.3634342  534.7344004  -0.5000   0.5000  -0.5000   -1.5819725    1.5843936   -1.5819473   1
    0  108.3874326   35.4536733  533.8842542  -0.5000   0.5000  -0.5000   -1.5819725    1.5843936   -1.5819473   1
    0  110.7170898   35.3135315  533.0516691  -0.5000   0.5000  -0.5000   -1.5819725    1.5843936   -1.5819473   1
    0  111.9633716   36.2906837  531.8331415  -0.5000   0.5000  -0.5000   -1.5819725    1.5843936   -1.5819473   1
    0  112.6644958   37.4571400  530.5366872  -0.5000   0.5000  -0.5000   -1.5819725    1.5843936   -1.5819473   1
    0  113.3391881   38.7278249  530.2638625  -0.5000   0.5000  -0.5000   -1.5819725    1.5843936   -1.5819473   1
    0  113.9896128   40.3744842  531.9162670  -0.5000   0.5000  -0.5000   -1.5819725    1.5843936   -1.5819473   1
    0  113.8861989   41.7575139  534.0371936  -0.5000   0.5000  -0.5000   -1.5819725    1.5843936   -1.5819473   1
    0  112.8354156   42.6479374  535.5065158  -0.5000   0.5000  -0.5000   -1.5819725    1.5843936   -1.5819473   1
    0  111.6098250   43.0592505  536.7535998  -0.5000   0.5000  -0.5000   -1.5819725    1.5843936   -1.5819473   1
    0  110.5293224   43.2208778  537.2000447  -0.5000   0.5000  -0.5000   -1.5819725    1.5843936   -1.5819473   1
    0  108.7387517   43.6821332  537.0953164  -0.5000   0.5000  -0.5000   -1.5819725    1.5843936   -1.5819473   1
    1  458.9218571  512.6342142  627.7271429   0.5000  -0.5000  -0.5000    1.5830718   -1.5808032   -1.5823350   0
    1  457.3527318  511.2322875  627.5323308   0.5000  -0.5000  -0.5000    1.5830718   -1.5808032   -1.5823350   0
    1  456.3677347  509.7221645  627.7766240   0.5000  -0.5000  -0.5000    1.5830718   -1.5808032   -1.5823350   0
    1  455.3426210  508.3470763  628.1046635   0.5000  -0.5000  -0.5000    1.5830718   -1.5808032   -1.5823350   0
    1  454.4858175  506.8604482  629.1762856   0.5000  -0.5000  -0.5000    1.5830718   -1.5808032   -1.5823350   0
    1  454.6149853  504.7417172  630.1373558   0.5000  -0.5000  -0.5000    1.5830718   -1.5808032   -1.5823350   0
    1  455.4450594  503.2868297  630.5292906   0.5000  -0.5000  -0.5000    1.5830718   -1.5808032   -1.5823350   0
    1  456.2669413  503.3632641  631.6878345   0.5000  -0.5000  -0.5000    1.5830718   -1.5808032   -1.5823350   0
    1  457.1618343  503.6719233  633.5225348   0.5000  -0.5000  -0.5000    1.5830718   -1.5808032   -1.5823350   0
    1  457.7713682  503.4517901  635.3467705   0.5000  -0.5000  -0.5000    1.5830718   -1.5808032   -1.5823350   0
    1  458.0670992  503.3660571  637.1747690   0.5000  -0.5000  -0.5000    1.5830718   -1.5808032   -1.5823350   0
    1  458.7857319  504.3215739  638.4125572   0.5000  -0.5000  -0.5000    1.5830718   -1.5808032   -1.5823350   0
    1  459.9367142  505.9782857  638.4992858   0.5000  -0.5000  -0.5000    1.5830718   -1.5808032   -1.5823350   0
    2  402.3703032  606.2874349  591.4078644   0.5000  -0.5000  -0.5000    1.5830718   -1.5808032   -1.5823350   1
    2  402.7403169  607.9114338  592.3273191   0.5000  -0.5000  -0.5000    1.5830718   -1.5808032   -1.5823350   1
    2  403.5200292  608.9128714  594.4286670   0.5000  -0.5000  -0.5000    1.5830718   -1.5808032   -1.5823350   1
    2  404.7632961  609.7561657  595.9103777   0.5000  -0.5000  -0.5000    1.5830718   -1.5808032   -1.5823350   1
    2  406.3682720  610.7635778  596.7923764   0.5000  -0.5000  -0.5000    1.5830718   -1.5808032   -1.5823350   1
    2  407.6104133  612.2526389  597.4184772   0.5000  -0.5000  -0.5000    1.5830718   -1.5808032   -1.5823350   1
    2  408.8826048  614.0446926  597.4881294   0.5000  -0.5000  -0.5000    1.5830718   -1.5808032   -1.5823350   1
    2  410.2670721  616.0686730  597.5357259   0.5000  -0.5000  -0.5000    1.5830718   -1.5808032   -1.5823350   1
    2  410.9459476  618.5105219  597.3863930   0.5000  -0.5000  -0.5000    1.5830718   -1.5808032   -1.5823350   1
    2  411.2536923  620.8829369  596.2941081   0.5000  -0.5000  -0.5000    1.5830718   -1.5808032   -1.5823350   1
    2  411.2401965  622.2728163  594.1025998   0.5000  -0.5000  -0.5000    1.5830718   -1.5808032   -1.5823350   1
    2  410.4421490  622.5035633  591.6063147   0.5000  -0.5000  -0.5000    1.5830718   -1.5808032   -1.5823350   1
    2  409.1439125  621.8674040  589.6889175   0.5000  -0.5000  -0.5000    1.5830718   -1.5808032   -1.5823350   1
    2  407.8073292  621.1886970  588.0233649   0.5000  -0.5000  -0.5000    1.5830718   -1.5808032   -1.5823350   1
    2  406.8273474  621.4158430  586.1429784   0.5000  -0.5000  -0.5000    1.5830718   -1.5808032   -1.5823350   1
    2  407.0435633  621.9314939  584.4327764   0.5000  -0.5000  -0.5000    1.5830718   -1.5808032   -1.5823350   1
    2  408.3559783  622.9423946  583.5506315   0.5000  -0.5000  -0.5000    1.5830718   -1.5808032   -1.5823350   1
    2  409.3297877  625.0313815  582.4688381   0.5000  -0.5000  -0.5000    1.5830718   -1.5808032   -1.5823350   1
    2  409.5170715  627.1360063  580.6166069   0.5000  -0.5000  -0.5000    1.5830718   -1.5808032   -1.5823350   1
    2  409.5993724  628.7356168  578.7197168   0.5000  -0.5000  -0.5000    1.5830718   -1.5808032   -1.5823350   1
    2  409.3817108  629.7481583  576.5051172   0.5000  -0.5000  -0.5000    1.5830718   -1.5808032   -1.5823350   1
    2  408.3504707  630.5672704  574.4408917   0.5000  -0.5000  -0.5000    1.5830718   -1.5808032   -1.5823350   1
    2  406.9342732  631.0656619  572.7377835   0.5000  -0.5000  -0.5000    1.5830718   -1.5808032   -1.5823350   1
    2  405.6002149  630.3957876  570.9433752   0.5000  -0.5000  -0.5000    1.5830718   -1.5808032   -1.5823350   1
    2  404.6902616  628.5462642  569.6726610   0.5000  -0.5000  -0.5000    1.5830718   -1.5808032   -1.5823350   1
    2  404.2033342  625.9013150  569.7088074   0.5000  -0.5000  -0.5000    1.5830718   -1.5808032   -1.5823350   1
    2  403.7747458  623.0558959  570.3077072   0.5000  -0.5000  -0.5000    1.5830718   -1.5808032   -1.5823350   1
    2  403.7140413  620.9238645  571.0538831   0.5000  -0.5000  -0.5000    1.5830718   -1.5808032   -1.5823350   1
    2  404.2325733  619.9892347  572.8800977   0.5000  -0.5000  -0.5000    1.5830718   -1.5808032   -1.5823350   1
    2  404.5065824  619.3179399  575.2428519   0.5000  -0.5000  -0.5000    1.5830718   -1.5808032   -1.5823350   1
    2  404.1838951  617.8867671  577.0330362   0.5000  -0.5000  -0.5000    1.5830718   -1.5808032   -1.5823350   1
    2  403.5354255  616.2013936  578.7588045   0.5000  -0.5000  -0.5000    1.5830718   -1.5808032   -1.5823350   1
    2  402.8859514  615.1785789  581.0687287   0.5000  -0.5000  -0.5000    1.5830718   -1.5808032   -1.5823350   1
    2  402.6260134  614.4358044  583.2063091   0.5000  -0.5000  -0.5000    1.5830718   -1.5808032   -1.5823350   1
    2  402.6993822  613.5275023  585.0027390   0.5000  -0.5000  -0.5000    1.5830718   -1.5808032   -1.5823350   1
    2  402.8963633  612.7066962  587.0382024   0.5000  -0.5000  -0.5000    1.5830718   -1.5808032   -1.5823350   1
    2  403.1381710  611.1327560  589.0020258   0.5000  -0.5000  -0.5000    1.5830718   -1.5808032   -1.5823350   1
    2  403.0349376  608.7530908  590.2767840   0.5000  -0.5000  -0.5000    1.5830718   -1.5808032   -1.5823350   1
    2  402.3703031  606.2874350  591.4078645   0.5000  -0.5000  -0.5000    1.5830718   -1.5808032   -1.5823350   1
    3  365.3436104  648.5284802  519.4335646  -0.5000   0.5000   0.5000   -1.5830718    1.5808032    1.5823350   0
    3  367.9734581  651.4542295  517.2552999  -0.5000   0.5000   0.5000   -1.5830718    1.5808032    1.5823350   0
    3  369.8858783  652.7006553  516.4379433  -0.5000   0.5000   0.5000   -1.5830718    1.5808032    1.5823350   0
    3  371.2944968  653.0619447  515.3283282  -0.5000   0.5000   0.5000   -1.5830718    1.5808032    1.5823350   0
    3  372.0746888  654.0442793  513.6585088  -0.5000   0.5000   0.5000   -1.5830718    1.5808032    1.5823350   0
    3  372.2686671  655.0614777  511.4543072  -0.5000   0.5000   0.5000   -1.5830718    1.5808032    1.5823350   0
    3  373.0300350  655.1106097  509.1687144  -0.5000   0.5000   0.5000   -1.5830718    1.5808032    1.5823350   0
    3  375.0526526  654.9907282  508.4791762  -0.5000   0.5000   0.5000   -1.5830718    1.5808032    1.5823350   0
    3  376.9937851  655.2993812  509.2256841  -0.5000   0.5000   0.5000   -1.5830718    1.5808032    1.5823350   0
    3  378.2522871  655.9351042  510.4455573  -0.5000   0.5000   0.5000   -1.5830718    1.5808032    1.5823350   0
    3  379.2085592  657.5097458  511.0177050  -0.5000   0.5000   0.5000   -1.5830718    1.5808032    1.5823350   0
    3  380.1854653  659.1355620  510.8263325  -0.5000   0.5000   0.5000   -1.5830718    1.5808032    1.5823350   0
    3  381.7359372  659.2217970  511.3733160  -0.5000   0.5000   0.5000   -1.5830718    1.5808032    1.5823350   0
    3  383.5403570  658.5095884  512.7343718  -0.5000   0.5000   0.5000   -1.5830718    1.5808032    1.5823350   0
    3  385.1696356  658.4382318  514.0486307  -0.5000   0.5000   0.5000   -1.5830718    1.5808032    1.5823350   0
    3  386.5049418  658.6796504  515.2884278  -0.5000   0.5000   0.5000   -1.5830718    1.5808032    1.5823350   0
    3  387.8538525  658.3478083  516.7054940  -0.5000   0.5000   0.5000   -1.5830718    1.5808032    1.5823350   0
    3  389.7987766  657.9310849  518.0150208  -0.5000   0.5000   0.5000   -1.5830718    1.5808032    1.5823350   0
    3  391.5229837  657.9010255  519.1030437  -0.5000   0.5000   0.5000   -1.5830718    1.5808032    1.5823350   0
    3  392.2686676  657.4536740  520.3533739  -0.5000   0.5000   0.5000   -1.5830718    1.5808032    1.5823350   0
    3  392.7237714  656.3338889  521.9897895  -0.5000   0.5000   0.5000   -1.5830718    1.5808032    1.5823350   0
    3  394.0118855  655.7097252  523.8654059  -0.5000   0.5000   0.5000   -1.5830718    1.5808032    1.5823350   0
    3  395.9522978  655.7353489  525.8691384  -0.5000   0.5000   0.5000   -1.5830718    1.5808032    1.5823350   0
    3  397.3509528  655.7656773  528.1216313  -0.5000   0.5000   0.5000   -1.5830718    1.5808032    1.5823350   0
    3  398.3086471  656.3075874  529.9082538  -0.5000   0.5000   0.5000   -1.5830718    1.5808032    1.5823350   0
    3  399.7966007  657.3927496  530.4923976  -0.5000   0.5000   0.5000   -1.5830718    1.5808032    1.5823350   0
    3  402.2492624  658.0812343  530.8446153  -0.5000   0.5000   0.5000   -1.5830718    1.5808032    1.5823350   0
    3  404.2768063  658.7320206  531.7707472  -0.5000   0.5000   0.5000   -1.5830718    1.5808032    1.5823350   0
    3  405.4588121  659.8705155  532.3036218  -0.5000   0.5000   0.5000   -1.5830718    1.5808032    1.5823350   0
    3  406.8958848  661.1158582  532.4415755  -0.5000   0.5000   0.5000   -1.5830718    1.5808032    1.5823350   0
    3  408.2202664  662.1715802  533.4149214  -0.5000   0.5000   0.5000   -1.5830718    1.5808032    1.5823350   0
    3  409.4467950  662.9573593  534.9577046  -0.5000   0.5000   0.5000   -1.5830718    1.5808032    1.5823350   0
    3  411.4380429  663.3720696  536.1106688  -0.5000   0.5000   0.5000   -1.5830718    1.5808032    1.5823350   0
    3  413.4679693  663.5501405  537.4670382  -0.5000   0.5000   0.5000   -1.5830718    1.5808032    1.5823350   0
    3  414.4954471  664.3324616  539.5478667  -0.5000   0.5000   0.5000   -1.5830718    1.5808032    1.5823350   0
    3  415.3213469  665.0968678  541.6371617  -0.5000   0.5000   0.5000   -1.5830718    1.5808032    1.5823350   0
    3  416.6488187  665.1812365  543.2620535  -0.5000   0.5000   0.5000   -1.5830718    1.5808032    1.5823350   0
    3  418.2209542  665.7286634  544.3308160  -0.5000   0.5000   0.5000   -1.5830718    1.5808032    1.5823350   0
    3  419.4561127  667.3956432  544.6883113  -0.5000   0.5000   0.5000   -1.5830718    1.5808032    1.5823350   0
    3  419.6598073  669.6405539  545.0639290  -0.5000   0.5000   0.5000   -1.5830718    1.5808032    1.5823350   0
    3  419.3696079  670.7261928  546.5935069  -0.5000   0.5000   0.5000   -1.5830718    1.5808032    1.5823350   0
    3  419.5521640  670.0135742  548.7374983  -0.5000   0.5000   0.5000   -1.5830718    1.5808032    1.5823350   0
    3  419.9496346  668.6596136  550.6878490  -0.5000   0.5000   0.5000   -1.5830718    1.5808032    1.5823350   0
    3  420.8301472  667.1389620  552.2255105  -0.5000   0.5000   0.5000   -1.5830718    1.5808032    1.5823350   0
    3  422.2189161  666.1074981  553.3732972  -0.5000   0.5000   0.5000   -1.5830718    1.5808032    1.5823350   0
    3  422.9273023  666.6104643  554.0129728  -0.5000   0.5000   0.5000   -1.5830718    1.5808032    1.5823350   0
    3  423.1298582  667.5703305  553.0537837  -0.5000   0.5000   0.5000   -1.5830718    1.5808032    1.5823350   0
    3  423.8202276  667.9305493  551.3787362  -0.5000   0.5000   0.5000   -1.5830718    1.5808032    1.5823350   0
    3  425.1585550  669.1643829  550.9252643  -0.5000   0.5000   0.5000   -1.5830718    1.5808032    1.5823350   0
    3  425.9459754  671.7499169  551.2040745  -0.5000   0.5000   0.5000   -1.5830718    1.5808032    1.5823350   0
    3  425.6072926  673.5933929  552.3389184  -0.5000   0.5000   0.5000   -1.5830718    1.5808032    1.5823350   0
    3  425.9650384  673.8127076  554.3989157  -0.5000   0.5000   0.5000   -1.5830718    1.5808032    1.5823350   0
    3  427.6766783  673.6064323  556.3021598  -0.5000   0.5000   0.5000   -1.5830718    1.5808032    1.5823350   0
    3  429.3252829  673.8061859  558.0220210  -0.5000   0.5000   0.5000   -1.5830718    1.5808032    1.5823350   0
    3  430.4118562  674.3501362  559.7799089  -0.5000   0.5000   0.5000   -1.5830718    1.5808032    1.5823350   0
    3  431.2430474  674.8115950  561.6652115  -0.5000   0.5000   0.5000   -1.5830718    1.5808032    1.5823350   0
    3  432.2756124  675.3425172  563.2956996  -0.5000   0.5000   0.5000   -1.5830718    1.5808032    1.5823350   0
    3  433.8551802  676.0568573  564.3480936  -0.5000   0.5000   0.5000   -1.5830718    1.5808032    1.5823350   0
    3  435.6550336  676.9361679  565.0515556  -0.5000   0.5000   0.5000   -1.5830718    1.5808032    1.5823350   0
    3  436.9539372  677.7941603  566.3295256  -0.5000   0.5000   0.5000   -1.5830718    1.5808032    1.5823350   0
    3  437.5993612  677.9734307  568.6375316  -0.5000   0.5000   0.5000   -1.5830718    1.5808032    1.5823350   0
    3  438.0156430  677.4199288  571.2578157  -0.5000   0.5000   0.5000   -1.5830718    1.5808032    1.5823350   0
    3  437.9858875  676.6046717  573.6526707  -0.5000   0.5000   0.5000   -1.5830718    1.5808032    1.5823350   0
    3  437.1776412  675.8822521  575.7009962  -0.5000   0.5000   0.5000   -1.5830718    1.5808032    1.5823350   0
    3  435.8684640  675.3778392  577.6585265  -0.5000   0.5000   0.5000   -1.5830718    1.5808032    1.5823350   0
    3  435.0286741  675.3170671  579.9596939  -0.5000   0.5000   0.5000   -1.5830718    1.5808032    1.5823350   0
    3  435.2974285  675.4737858  583.1050000  -0.5000   0.5000   0.5000   -1.5830718    1.5808032    1.5823350   0
    4  539.7109390  517.1094807   34.0075703   0.5000  -0.5000  -0.5000    1.5830718   -1.5808032   -1.5823350   0
    4  541.8360131  518.4470958   31.7612661   0.5000  -0.5000  -0.5000    1.5830718   -1.5808032   -1.5823350   0
    4  543.8219415  519.5990771   31.1447029   0.5000  -0.5000  -0.5000    1.5830718   -1.5808032   -1.5823350   0
    4  544.7285152  521.6923663   31.1447329   0.5000  -0.5000  -0.5000    1.5830718   -1.5808032   -1.5823350   0
    4  545.2033326  524.2074373   30.6495936   0.5000  -0.5000  -0.5000    1.5830718   -1.5808032   -1.5823350   0
    4  546.0102299  526.4698501   30.4210186   0.5000  -0.5000  -0.5000    1.5830718   -1.5808032   -1.5823350   0
    4  546.9094447  528.4537814   30.4620638   0.5000  -0.5000  -0.5000    1.5830718   -1.5808032   -1.5823350   0
    4  547.6605371  530.5716761   29.4278173   0.5000  -0.5000  -0.5000    1.5830718   -1.5808032   -1.5823350   0
    4  547.5784736  532.8961323   28.1291002   0.5000  -0.5000  -0.5000    1.5830718   -1.5808032   -1.5823350   0
    4  546.6653763  534.1890721   27.2022134   0.5000  -0.5000  -0.5000    1.5830718   -1.5808032   -1.5823350   0
    4  546.2460792  534.5088513   25.4301274   0.5000  -0.5000  -0.5000    1.5830718   -1.5808032   -1.5823350   0
    4  545.9895887  535.1734638   23.1921277   0.5000  -0.5000  -0.5000    1.5830718   -1.5808032   -1.5823350   0
    4  544.8758693  535.2201341   21.5224219   0.5000  -0.5000  -0.5000    1.5830718   -1.5808032   -1.5823350   0
    4  543.6485462  533.5794291   20.4167588   0.5000  -0.5000  -0.5000    1.5830718   -1.5808032   -1.5823350   0
    4  543.0535740  531.7952268   20.5230396   0.5000  -0.5000  -0.5000    1.5830718   -1.5808032   -1.5823350   0
    4  542.6325726  530.7598339   21.9887782   0.5000  -0.5000  -0.5000    1.5830718   -1.5808032   -1.5823350   0
    4  541.7811512  530.3992636   22.4984248   0.5000  -0.5000  -0.5000    1.5830718   -1.5808032   -1.5823350   0
    4  540.8415773  530.4272015   21.1816302   0.5000  -0.5000  -0.5000    1.5830718   -1.5808032   -1.5823350   0
    4  540.3523140  529.8430344   19.3718833   0.5000  -0.5000  -0.5000    1.5830718   -1.5808032   -1.5823350   0
    4  540.1588835  529.0509476   17.5656492   0.5000  -0.5000  -0.5000    1.5830718   -1.5808032   -1.5823350   0
    4  539.9761750  529.4694143   16.0428004   0.5000  -0.5000  -0.5000    1.5830718   -1.5808032   -1.5823350   0
    4  539.7327641  530.6724326   14.3820324   0.5000  -0.5000  -0.5000    1.5830718   -1.5808032   -1.5823350   0
    4  538.8051832  530.9957449   12.5897310   0.5000  -0.5000  -0.5000    1.5830718   -1.5808032   -1.5823350   0
    4  537.2120378  529.6856806   11.9209177   0.5000  -0.5000  -0.5000    1.5830718   -1.5808032   -1.5823350   0
    4  536.0521630  527.1439489   11.9324821   0.5000  -0.5000  -0.5000    1.5830718   -1.5808032   -1.5823350   0
    4  535.4697101  524.6659891   12.1698322   0.5000  -0.5000  -0.5000    1.5830718   -1.5808032   -1.5823350   0
    4  535.6982509  522.8457751   13.0295700   0.5000  -0.5000  -0.5000    1.5830718   -1.5808032   -1.5823350   0
    4  536.5080017  520.8057578   13.8898054   0.5000  -0.5000  -0.5000    1.5830718   -1.5808032   -1.5823350   0
    4  537.2284194  518.6532341   14.8394314   0.5000  -0.5000  -0.5000    1.5830718   -1.5808032   -1.5823350   0
    4  538.0432782  517.3053002   16.2779820   0.5000  -0.5000  -0.5000    1.5830718   -1.5808032   -1.5823350   0
    4  538.5755241  516.0240915   17.2238944   0.5000  -0.5000  -0.5000    1.5830718   -1.5808032   -1.5823350   0
    4  538.9924207  513.9672468   17.2955908   0.5000  -0.5000  -0.5000    1.5830718   -1.5808032   -1.5823350   0
    4  539.4993287  511.5307868   17.1841708   0.5000  -0.5000  -0.5000    1.5830718   -1.5808032   -1.5823350   0
    4  539.3191132  510.2078686   17.7180175   0.5000  -0.5000  -0.5000    1.5830718   -1.5808032   -1.5823350   0
    4  539.1271492  510.9210865   19.1351035   0.5000  -0.5000  -0.5000    1.5830718   -1.5808032   -1.5823350   0
    4  539.8175450  512.2746070   20.6843153   0.5000  -0.5000  -0.5000    1.5830718   -1.5808032   -1.5823350   0
    4  540.2356789  512.7606606   22.2085121   0.5000  -0.5000  -0.5000    1.5830718   -1.5808032   -1.5823350   0
    4  539.8073332  512.5550352   24.0825157   0.5000  -0.5000  -0.5000    1.5830718   -1.5808032   -1.5823350   0
    4  539.3084408  512.7596494   26.1839001   0.5000  -0.5000  -0.5000    1.5830718   -1.5808032   -1.5823350   0
    4  539.7093481  513.4037323   27.9280340   0.5000  -0.5000  -0.5000    1.5830718   -1.5808032   -1.5823350   0
    4  541.0755898  513.9599261   29.1693588   0.5000  -0.5000  -0.5000    1.5830718   -1.5808032   -1.5823350   0
    4  541.4055536  515.0474547   30.9810507   0.5000  -0.5000  -0.5000    1.5830718   -1.5808032   -1.5823350   0
    4  539.7109390  517.1094807   34.0075703   0.5000  -0.5000  -0.5000    1.5830718   -1.5808032   -1.5823350   0
    5  241.8132083   78.4210896   26.2403459  -0.5000  -0.5000  -0.5000   -1.5812963   -1.5799946   -1.5816891   0
    5  242.7996678   76.5478657   23.2145861  -0.5000  -0.5000  -0.5000   -1.5812963   -1.5799946   -1.5816891   0
    5  244.0938153   75.4258050   21.4848242  -0.5000  -0.5000  -0.5000   -1.5812963   -1.5799946   -1.5816891   0
    5  245.7130973   73.9685926   20.2735317  -0.5000  -0.5000  -0.5000   -1.5812963   -1.5799946   -1.5816891   0
    5  247.4747777   72.1027493   19.6144262  -0.5000  -0.5000  -0.5000   -1.5812963   -1.5799946   -1.5816891   0
    5  249.2153051   71.2504574   19.6121858  -0.5000  -0.5000  -0.5000   -1.5812963   -1.5799946   -1.5816891   0
    5  250.9872939   71.4147270   19.3659288  -0.5000  -0.5000  -0.5000   -1.5812963   -1.5799946   -1.5816891   0
    5  252.6995254   70.5943717   19.0127742  -0.5000  -0.5000  -0.5000   -1.5812963   -1.5799946   -1.5816891   0
    5  254.3964949   68.5680737   19.0744010  -0.5000  -0.5000  -0.5000   -1.5812963   -1.5799946   -1.5816891   0
    5  255.9147801   66.9257286   19.5545125  -0.5000  -0.5000  -0.5000   -1.5812963   -1.5799946   -1.5816891   0
    5  256.3894971   65.5217338   20.3426247  -0.5000  -0.5000  -0.5000   -1.5812963   -1.5799946   -1.5816891   0
    5  255.6188852   63.8667662   21.3171376  -0.5000  -0.5000  -0.5000   -1.5812963   -1.5799946   -1.5816891   0
    5  254.5052681   62.3789718   22.5384182  -0.5000  -0.5000  -0.5000   -1.5812963   -1.5799946   -1.5816891   0
    5  253.9263630   60.9724030   24.2358244  -0.5000  -0.5000  -0.5000   -1.5812963   -1.5799946   -1.5816891   0
    5  254.0225673   59.2479220   26.1981477  -0.5000  -0.5000  -0.5000   -1.5812963   -1.5799946   -1.5816891   0
    5  254.6199367   57.3943795   27.7688367  -0.5000  -0.5000  -0.5000   -1.5812963   -1.5799946   -1.5816891   0
    5  255.7422689   55.7044295   28.7943236  -0.5000  -0.5000  -0.5000   -1.5812963   -1.5799946   -1.5816891   0
    5  257.1537026   54.2374308   29.2691285  -0.5000  -0.5000  -0.5000   -1.5812963   -1.5799946   -1.5816891   0
    5  258.6010086   52.7003121   29.2610128  -0.5000  -0.5000  -0.5000   -1.5812963   -1.5799946   -1.5816891   0
    5  260.0608753   50.6916275   29.0905389  -0.5000  -0.5000  -0.5000   -1.5812963   -1.5799946   -1.5816891   0
    5  261.4472367   48.6786208   28.9979398  -0.5000  -0.5000  -0.5000   -1.5812963   -1.5799946   -1.5816891   0
    5  262.4740782   46.6649846   29.4203949  -0.5000  -0.5000  -0.5000   -1.5812963   -1.5799946   -1.5816891   0
    5  263.1051999   44.4355000   30.5317883  -0.5000  -0.5000  -0.5000   -1.5812963   -1.5799946   -1.5816891   0
    5  263.1120630   42.7267259   31.8518338  -0.5000  -0.5000  -0.5000   -1.5812963   -1.5799946   -1.5816891   0
    5  262.1056108   42.0783248   32.5915168  -0.5000  -0.5000  -0.5000   -1.5812963   -1.5799946   -1.5816891   0
    5  260.6302995   42.2290703   32.9599178  -0.5000  -0.5000  -0.5000   -1.5812963   -1.5799946   -1.5816891   0
    5  258.7201694   42.3505158   33.4946643  -0.5000  -0.5000  -0.5000   -1.5812963   -1.5799946   -1.5816891   0
    5  256.2755448   42.5195615   34.0156277  -0.5000  -0.5000  -0.5000   -1.5812963   -1.5799946   -1.5816891   0
    5  253.9203301   42.5375191   35.0365374  -0.5000  -0.5000  -0.5000   -1.5812963   -1.5799946   -1.5816891   0
    5  252.3995317   42.2510580   36.6279766  -0.5000  -0.5000  -0.5000   -1.5812963   -1.5799946   -1.5816891   0
    5  252.2380243   42.2474624   38.3150820  -0.5000  -0.5000  -0.5000   -1.5812963   -1.5799946   -1.5816891   0
    5  252.7160750   42.7385131   40.0970177  -0.5000  -0.5000  -0.5000   -1.5812963   -1.5799946   -1.5816891   0
    5  252.7747994   43.3323896   41.7097165  -0.5000  -0.5000  -0.5000   -1.5812963   -1.5799946   -1.5816891   0
    5  251.8429553   43.4589345   42.3719096  -0.5000  -0.5000  -0.5000   -1.5812963   -1.5799946   -1.5816891   0
    5  250.0457067   44.1924122   42.1243816  -0.5000  -0.5000  -0.5000   -1.5812963   -1.5799946   -1.5816891   0
    5  247.9919555   45.1961584   42.8574190  -0.5000  -0.5000  -0.5000   -1.5812963   -1.5799946   -1.5816891   0
    5  246.1882247   45.5136010   44.8613994  -0.5000  -0.5000  -0.5000   -1.5812963   -1.5799946   -1.5816891   0
    5  244.9626087   46.3880007   46.7650309  -0.5000  -0.5000  -0.5000   -1.5812963   -1.5799946   -1.5816891   0
    5  244.0377007   48.2075136   48.0042506  -0.5000  -0.5000  -0.5000   -1.5812963   -1.5799946   -1.5816891   0
    5  243.4478019   50.4906977   48.1920713  -0.5000  -0.5000  -0.5000   -1.5812963   -1.5799946   -1.5816891   0
    5  243.7139799   52.5921691   47.4129529  -0.5000  -0.5000  -0.5000   -1.5812963   -1.5799946   -1.5816891   0
    5  244.5525242   53.8498107   45.8439724  -0.5000  -0.5000  -0.5000   -1.5812963   -1.5799946   -1.5816891   0
    5  245.0643226   55.0347735   43.9938967  -0.5000  -0.5000  -0.5000   -1.5812963   -1.5799946   -1.5816891   0
    5  245.3785836   57.0030500   42.5250639  -0.5000  -0.5000  -0.5000   -1.5812963   -1.5799946   -1.5816891   0
    5  245.4180854   59.0297165   41.2419255  -0.5000  -0.5000  -0.5000   -1.5812963   -1.5799946   -1.5816891   0
    5  244.6765197   60.6315968   40.1502172  -0.5000  -0.5000  -0.5000   -1.5812963   -1.5799946   -1.5816891   0
    5  243.7424065   62.3371574   39.2416357  -0.5000  -0.5000  -0.5000   -1.5812963   -1.5799946   -1.5816891   0
    5  243.2249333   64.1636678   37.7455152  -0.5000  -0.5000  -0.5000   -1.5812963   -1.5799946   -1.5816891   0
    5  242.1852523   65.9076936   37.5454202  -0.5000  -0.5000  -0.5000   -1.5812963   -1.5799946   -1.5816891   0
    5  238.9696540   67.5620142   41.4241731  -0.5000  -0.5000  -0.5000   -1.5812963   -1.5799946   -1.5816891   0
    6  471.8720445  100.5789111  541.8639666   0.5000  -0.5000   0.5000    1.5819725   -1.5843936    1.5819473   0
    6  472.2411252   99.1101822  542.7728621   0.5000  -0.5000   0.5000    1.5819725   -1.5843936    1.5819473   0
    6  473.4831722   97.6577913  543.6473966   0.5000  -0.5000   0.5000    1.5819725   -1.5843936    1.5819473   0
    6  475.3281538   95.7274030  544.5701434   0.5000  -0.5000   0.5000    1.5819725   -1.5843936    1.5819473   0
    6  477.4963064   93.5443754  545.5974399   0.5000  -0.5000   0.5000    1.5819725   -1.5843936    1.5819473   0
    6  479.1076587   91.4064235  546.1189131   0.5000  -0.5000   0.5000    1.5819725   -1.5843936    1.5819473   0
    6  479.7406900   88.9612595  546.4382580   0.5000  -0.5000   0.5000    1.5819725   -1.5843936    1.5819473   0
    6  480.2594966   85.9756973  547.1184770   0.5000  -0.5000   0.5000    1.5819725   -1.5843936    1.5819473   0
    6  481.0618029   82.9403234  547.7196979   0.5000  -0.5000   0.5000    1.5819725   -1.5843936    1.5819473   0
    6  481.1415271   80.8216195  547.0049484   0.5000  -0.5000   0.5000    1.5819725   -1.5843936    1.5819473   0
    6  480.7141906   79.7390836  546.0089378   0.5000  -0.5000   0.5000    1.5819725   -1.5843936    1.5819473   0
    6  481.4421485   78.6839137  546.6769980   0.5000  -0.5000   0.5000    1.5819725   -1.5843936    1.5819473   0
    6  483.0837623   77.2724079  547.8669815   0.5000  -0.5000   0.5000    1.5819725   -1.5843936    1.5819473   0
    6  484.9662236   76.4628101  549.0273449   0.5000  -0.5000   0.5000    1.5819725   -1.5843936    1.5819473   0
    6  487.5270384   76.1227332  550.4869059   0.5000  -0.5000   0.5000    1.5819725   -1.5843936    1.5819473   0
    6  490.5165067   75.4413081  551.2903313   0.5000  -0.5000   0.5000    1.5819725   -1.5843936    1.5819473   0
    6  493.0308441   74.5254910  551.1798791   0.5000  -0.5000   0.5000    1.5819725   -1.5843936    1.5819473   0
    6  494.8498804   73.1910686  550.9893799   0.5000  -0.5000   0.5000    1.5819725   -1.5843936    1.5819473   0
    6  496.4035533   71.5593123  550.9821954   0.5000  -0.5000   0.5000    1.5819725   -1.5843936    1.5819473   0
    6  498.3415852   70.1553545  550.9626716   0.5000  -0.5000   0.5000    1.5819725   -1.5843936    1.5819473   0
    6  500.5860643   69.0184476  551.1087840   0.5000  -0.5000   0.5000    1.5819725   -1.5843936    1.5819473   0
    6  502.5754511   67.9249283  551.1013760   0.5000  -0.5000   0.5000    1.5819725   -1.5843936    1.5819473   0
    6  504.1321142   66.4256042  550.5673722   0.5000  -0.5000   0.5000    1.5819725   -1.5843936    1.5819473   0
    6  505.4041264   64.5314249  550.1420727   0.5000  -0.5000   0.5000    1.5819725   -1.5843936    1.5819473   0
    6  506.9414128   63.0430963  550.0291868   0.5000  -0.5000   0.5000    1.5819725   -1.5843936    1.5819473   0
    6  508.2997516   61.9260182  550.2701118   0.5000  -0.5000   0.5000    1.5819725   -1.5843936    1.5819473   0
    6  508.9412633   60.7713210  551.4690036   0.5000  -0.5000   0.5000    1.5819725   -1.5843936    1.5819473   0
    6  509.6811998   60.4329621  552.9498656   0.5000  -0.5000   0.5000    1.5819725   -1.5843936    1.5819473   0
    6  511.2709366   60.6904643  553.7829714   0.5000  -0.5000   0.5000    1.5819725   -1.5843936    1.5819473   0
    6  513.6182534   60.0282096  554.2415886   0.5000  -0.5000   0.5000    1.5819725   -1.5843936    1.5819473   0