ITEM: TIMESTEP
0
ITEM: NUMBER OF ATOMS
10039
ITEM: BOX BOUNDS pp pp pp 
0.0 696.132734
0.0 696.575033
0.0 697.816992
ITEM: ATOMS id x y z tbx tby tbz sbx sby sbz loop
    0  341.0556333  668.6113333  433.1898833  -0.0000  -1.0000  -0.0000    0.0008793   -3.1643912    0.0000631   0
    0  341.8976788  670.5186041  432.3825357  -0.0000  -1.0000  -0.0000    0.0008793   -3.1643912    0.0000631   0
    0  342.7784560  672.6019265  432.0455385  -0.0000  -1.0000  -0.0000    0.0008793   -3.1643912    0.0000631   0
    0  343.8204224  674.1949909  432.6732749  -0.0000  -1.0000  -0.0000    0.0008793   -3.1643912    0.0000631   0
    0  344.9916798  675.4516959  433.7037543  -0.0000  -1.0000  -0.0000    0.0008793   -3.1643912    0.0000631   0
    0  346.4223480  676.9168318  434.1992194  -0.0000  -1.0000  -0.0000    0.0008793   -3.1643912    0.0000631   0
    0  348.0029284  678.4658348  434.1714591  -0.0000  -1.0000  -0.0000    0.0008793   -3.1643912    0.0000631   0
    0  349.4056710  679.9648187  434.0236652  -0.0000  -1.0000  -0.0000    0.0008793   -3.1643912    0.0000631   0
    0  350.7322749  681.2803757  434.1127164  -0.0000  -1.0000  -0.0000    0.0008793   -3.1643912    0.0000631   0
    0  352.3040965  682.7221403  434.2469503  -0.0000  -1.0000  -0.0000    0.0008793   -3.1643912    0.0000631   0
    0  354.0336199  684.3487532  433.4448220  -0.0000  -1.0000  -0.0000    0.0008793   -3.1643912    0.0000631   0
    0  355.5753201  686.0106588  431.7297196  -0.0000  -1.0000  -0.0000    0.0008793   -3.1643912    0.0000631   0
    0  356.8038171  687.8892719  430.9237514  -0.0000  -1.0000  -0.0000    0.0008793   -3.1643912    0.0000631   0
    0  358.0736167  689.6559925  431.9443677  -0.0000  -1.0000  -0.0000    0.0008793   -3.1643912    0.0000631   0
    0  359.5137110  691.4519038  433.5303366  -0.0000  -1.0000  -0.0000    0.0008793   -3.1643912    0.0000631   0
    0  360.4762951  693.2069012  435.1940735  -0.0000  -1.0000  -0.0000    0.0008793   -3.1643912    0.0000631   0
    0  360.7580755  694.4465089  436.9395326  -0.0000  -1.0000  -0.0000    0.0008793   -3.1643912    0.0000631   0
    0  361.0494066  695.9074430  438.2384091  -0.0000  -1.0000  -0.0000    0.0008793   -3.1643912    0.0000631   0
    0  361.5601491  697.3842264  439.5405943  -0.0000  -1.0000  -0.0000    0.0008793   -3.1643912    0.0000631   0
    0  361.9689697  698.7689115  441.1496872  -0.0000  -1.0000  -0.0000    0.0008793   -3.1643912    0.0000631   0
    0  362.4059767  700.9968232  442.5951960  -0.0000  -1.0000  -0.0000    0.0008793   -3.1643912    0.0000631   0
    0  362.9280563  703.3296686  443.8659809  -0.0000  -1.0000  -0.0000    0.0008793   -3.1643912    0.0000631   0
    0  363.8433478  705.0959116  445.1681222  -0.0000  -1.0000  -0.0000    0.0008793   -3.1643912    0.0000631   0
    0  365.2775128  706.3295262  446.5947124  -0.0000  -1.0000  -0.0000    0.0008793   -3.1643912    0.0000631   0
    0  366.5259450  707.0139105  448.0755660  -0.0000  -1.0000  -0.0000    0.0008793   -3.1643912    0.0000631   0
    0  367.9510396  707.8560448  449.5506834  -0.0000  -1.0000  -0.0000    0.0008793   -3.1643912    0.0000631   0
    0  369.3542412  709.2077531  450.8323857  -0.0000  -1.0000  -0.0000    0.0008793   -3.1643912    0.0000631   0
    0  369.7195519  711.0273696  451.6477354  -0.0000  -1.0000  -0.0000    0.0008793   -3.1643912    0.0000631   0
    0  369.8537748  713.2030400  452.5565352  -0.0000  -1.0000  -0.0000    0.0008793   -3.1643912    0.0000631   0
    0  370.6880751  715.2274706  454.1703412  -0.0000  -1.0000  -0.0000    0.0008793   -3.1643912    0.0000631   0
    0  372.2720486  717.0564120  455.8441976  -0.0000  -1.0000  -0.0000    0.0008793   -3.1643912    0.0000631   0
    0  373.1549338  718.8525464  456.9208674  -0.0000  -1.0000  -0.0000    0.0008793   -3.1643912    0.0000631   0
    0  372.8717327  720.6876365  458.0002594  -0.0000  -1.0000  -0.0000    0.0008793   -3.1643912    0.0000631   0
    0  373.2446689  722.6989684  459.2787771  -0.0000  -1.0000  -0.0000    0.0008793   -3.1643912    0.0000631   0
    0  374.2666197  724.4537077  460.4641775  -0.0000  -1.0000  -0.0000    0.0008793   -3.1643912    0.0000631   0
    0  374.9813701  725.9310380  461.6819465  -0.0000  -1.0000  -0.0000    0.0008793   -3.1643912    0.0000631   0
    0  375.1580347  727.3391362  463.1010183  -0.0000  -1.0000  -0.0000    0.0008793   -3.1643912    0.0000631   0
    0  375.2451331  728.5046104  464.6098134  -0.0000  -1.0000  -0.0000    0.0008793   -3.1643912    0.0000631   0
    0  375.9989244  729.9101977  466.0061692  -0.0000  -1.0000  -0.0000    0.0008793   -3.1643912    0.0000631   0
    0  377.2099009  731.7782130  467.1908244  -0.0000  -1.0000  -0.0000    0.0008793   -3.1643912    0.0000631   0
    0  377.8602589  733.5585778  468.2090994  -0.0000  -1.0000  -0.0000    0.0008793   -3.1643912    0.0000631   0
    0  377.3975148  735.1702315  468.9790953  -0.0000  -1.0000  -0.0000    0.0008793   -3.1643912    0.0000631   0
    0  376.8108897  736.9752927  469.5528941  -0.0000  -1.0000  -0.0000    0.0008793   -3.1643912    0.0000631   0
    0  376.7236316  738.7104903  470.6292918  -0.0000  -1.0000  -0.0000    0.0008793   -3.1643912    0.0000631   0
    0  376.7557788  740.1697234  472.2690356  -0.0000  -1.0000  -0.0000    0.0008793   -3.1643912    0.0000631   0
    0  376.7525022  741.7397164  474.0511351  -0.0000  -1.0000  -0.0000    0.0008793   -3.1643912    0.0000631   0
    0  376.9089892  743.4440369  475.4218839  -0.0000  -1.0000  -0.0000    0.0008793   -3.1643912    0.0000631   0
    0  377.6956655  744.7864019  476.4485672  -0.0000  -1.0000  -0.0000    0.0008793   -3.1643912    0.0000631   0
    0  378.8709746  745.8440838  477.7244001  -0.0000  -1.0000  -0.0000    0.0008793   -3.1643912    0.0000631   0
    0  380.1656870  746.8658304  479.1382944  -0.0000  -1.0000  -0.0000    0.0008793   -3.1643912    0.0000631   0
    0  381.7745504  747.8891078  480.7112874  -0.0000  -1.0000  -0.0000    0.0008793   -3.1643912    0.0000631   0
    0  383.4533193  749.2208602  482.1994008  -0.0000  -1.0000  -0.0000    0.0008793   -3.1643912    0.0000631   0
    0  384.9507645  750.5031048  483.4500424  -0.0000  -1.0000  -0.0000    0.0008793   -3.1643912    0.0000631   0
    0  386.1581114  751.7935319  484.8016877  -0.0000  -1.0000  -0.0000    0.0008793   -3.1643912    0.0000631   0
    0  386.6048063  753.6379646  485.3892339  -0.0000  -1.0000  -0.0000    0.0008793   -3.1643912    0.0000631   0
    0  386.6021725  755.6408967  485.3970600  -0.0000  -1.0000  -0.0000    0.0008793   -3.1643912    0.0000631   0
    0  386.8270476  757.2213998  486.5626534  -0.0000  -1.0000  -0.0000    0.0008793   -3.1643912    0.0000631   0
    0  387.1527999  758.4825250  488.4531775  -0.0000  -1.0000  -0.0000    0.0008793   -3.1643912    0.0000631   0
    0  387.7695863  759.9696540  490.0256316  -0.0000  -1.0000  -0.0000    0.0008793   -3.1643912    0.0000631   0
    0  388.6679708  761.7664328  491.1094649  -0.0000  -1.0000  -0.0000    0.0008793   -3.1643912    0.0000631   0
    0  388.8916067  763.6718581  491.8887997  -0.0000  -1.0000  -0.0000    0.0008793   -3.1643912    0.0000631   0
    0  388.7226520  765.5101055  493.0153144  -0.0000  -1.0000  -0.0000    0.0008793   -3.1643912    0.0000631   0
    0  389.1289459  767.2490270  494.3462997  -0.0000  -1.0000  -0.0000    0.0008793   -3.1643912    0.0000631   0
    0  389.8390701  769.0519905  495.4274898  -0.0000  -1.0000  -0.0000    0.0008793   -3.1643912    0.0000631   0
    0  390.7515920  770.9653194  496.4124605  -0.0000  -1.0000  -0.0000    0.0008793   -3.1643912    0.0000631   0
    0  391.7666886  772.9462501  497.3970658  -0.0000  -1.0000  -0.0000    0.0008793   -3.1643912    0.0000631   0
    0  391.8652530  774.8435926  498.3380658  -0.0000  -1.0000  -0.0000    0.0008793   -3.1643912    0.0000631   0
    0  391.5190804  776.5142326  499.6032646  -0.0000  -1.0000  -0.0000    0.0008793   -3.1643912    0.0000631   0
    0  392.0236243  778.0884895  501.2553742  -0.0000  -1.0000  -0.0000    0.0008793   -3.1643912    0.0000631   0
    0  391.9776564  779.6746523  502.3810380  -0.0000  -1.0000  -0.0000    0.0008793   -3.1643912    0.0000631   0
    0  390.7877723  781.2705025  502.9030542  -0.0000  -1.0000  -0.0000    0.0008793   -3.1643912    0.0000631   0
    0  389.8081251  783.0182017  503.8512817  -0.0000  -1.0000  -0.0000    0.0008793   -3.1643912    0.0000631   0
    0  389.5358515  784.9365605  504.8028301  -0.0000  -1.0000  -0.0000    0.0008793   -3.1643912    0.0000631   0
    0  389.5729569  786.7754136  505.1684916  -0.0000  -1.0000  -0.0000    0.0008793   -3.1643912    0.0000631   0
    0  389.0917083  788.3083160  505.6148750  -0.0000  -1.0000  -0.0000    0.0008793   -3.1643912    0.0000631   0
    1  635.1216667  610.1137777  487.7705556  -0.0000   1.0000  -0.0000   -0.0008793    3.1643912   -0.0000631   0
    1  638.2226046  610.3401765  488.6835317  -0.0000   1.0000  -0.0000   -0.0008793    3.1643912   -0.0000631   0
    1  640.6732861  610.6287641  489.5311637  -0.0000   1.0000  -0.0000   -0.0008793    3.1643912   -0.0000631   0
    1  641.9680671  611.2019403  490.5115238  -0.0000   1.0000  -0.0000   -0.0008793    3.1643912   -0.0000631   0
    1  642.8693500  612.7691704  491.6633925  -0.0000   1.0000  -0.0000   -0.0008793    3.1643912   -0.0000631   0
    1  643.9012678  614.9151454  493.1084616  -0.0000   1.0000  -0.0000   -0.0008793    3.1643912   -0.0000631   0
    1  644.5625456  616.7796747  494.8152372  -0.0000   1.0000  -0.0000   -0.0008793    3.1643912   -0.0000631   0
    1  644.7217838  618.1039886  496.4457200  -0.0000   1.0000  -0.0000   -0.0008793    3.1643912   -0.0000631   0
    1  644.2921363  619.7297275  497.9729052  -0.0000   1.0000  -0.0000   -0.0008793    3.1643912   -0.0000631   0
    1  644.0090933  621.7761400  499.6222194  -0.0000   1.0000  -0.0000   -0.0008793    3.1643912   -0.0000631   0
    1  644.0030489  623.4232154  501.3835864  -0.0000   1.0000  -0.0000   -0.0008793    3.1643912   -0.0000631   0
    1  643.3444151  624.9745696  503.3021473  -0.0000   1.0000  -0.0000   -0.0008793    3.1643912   -0.0000631   0
    1  642.6404000  626.6164589  505.0750677  -0.0000   1.0000  -0.0000   -0.0008793    3.1643912   -0.0000631   0
    1  642.7260410  628.1273387  506.2919010  -0.0000   1.0000  -0.0000   -0.0008793    3.1643912   -0.0000631   0
    1  643.3411383  629.4394969  507.4215174  -0.0000   1.0000  -0.0000   -0.0008793    3.1643912   -0.0000631   0
    1  643.7974841  630.4559338  508.8455365  -0.0000   1.0000  -0.0000   -0.0008793    3.1643912   -0.0000631   0
    1  643.9084222  631.9940567  510.2615226  -0.0000   1.0000  -0.0000   -0.0008793    3.1643912   -0.0000631   0
    1  644.2893439  634.0422550  511.7693600  -0.0000   1.0000  -0.0000   -0.0008793    3.1643912   -0.0000631   0
    1  645.0602231  635.6727065  513.4851967  -0.0000   1.0000  -0.0000   -0.0008793    3.1643912   -0.0000631   0
    1  645.0866653  637.1364345  514.8079406  -0.0000   1.0000  -0.0000   -0.0008793    3.1643912   -0.0000631   0
    1  644.0832690  638.4286059  515.9776570  -0.0000   1.0000  -0.0000   -0.0008793    3.1643912   -0.0000631   0
    1  642.7303978  639.1637307  517.4358972  -0.0000   1.0000  -0.0000   -0.0008793    3.1643912   -0.0000631   0
    1  641.1247350  639.9518410  518.8148538  -0.0000   1.0000  -0.0000   -0.0008793    3.1643912   -0.0000631   0
    1  639.7027820  641.7653016  520.3133853  -0.0000   1.0000  -0.0000   -0.0008793    3.1643912   -0.0000631   0
    1  638.7848839  644.0796633  521.6448666  -0.0000   1.0000  -0.0000   -0.0008793    3.1643912   -0.0000631   0
    1  638.0038715  645.8950160  522.5065295  -0.0000   1.0000  -0.0000   -0.0008793    3.1643912   -0.0000631   0
    1  636.9396950  647.2920154  523.6016300  -0.0000   1.0000  -0.0000   -0.0008793    3.1643912   -0.0000631   0
    1  636.0785638  648.6118768  524.6227370  -0.0000   1.0000  -0.0000   -0.0008793    3.1643912   -0.0000631   0
    1  636.2728980  649.9276784  525.5958923  -0.0000   1.0000  -0.0000   -0.0008793    3.1643912   -0.0000631   0
    1  636.9772338  651.1167317  527.0324783  -0.0000   1.0000  -0.0000   -0.0008793    3.1643912   -0.0000631   0
    1  637.7107768  652.4755046  528.1568291  -0.0000   1.0000  -0.0000   -0.0008793    3.1643912   -0.0000631   0
    1  639.0601707  654.3172210  528.7616940  -0.0000   1.0000  -0.0000   -0.0008793    3.1643912   -0.0000631   0
    1  640.9202366  656.2435433  528.6626253  -0.0000   1.0000  -0.0000   -0.0008793    3.1643912   -0.0000631   0
    1  642.7500088  657.7268968  527.8298057  -0.0000   1.0000  -0.0000   -0.0008793    3.1643912   -0.0000631   0
    1  644.2647236  659.0336372  527.6584530  -0.0000   1.0000  -0.0000   -0.0008793    3.1643912   -0.0000631   0
    1  645.6242310  660.3222511  528.4939814  -0.0000   1.0000  -0.0000   -0.0008793    3.1643912   -0.0000631   0
    1  647.3574197  660.9848756  529.5635218  -0.0000   1.0000  -0.0000   -0.0008793    3.1643912   -0.0000631   0
    1  649.3459415  661.2956813  530.2728230  -0.0000   1.0000  -0.0000   -0.0008793    3.1643912   -0.0000631   0
    1  650.9459028  662.3871877  530.4913330  -0.0000   1.0000  -0.0000   -0.0008793    3.1643912   -0.0000631   0
    1  652.0156453  664.1630788  530.1538516  -0.0000   1.0000  -0.0000   -0.0008793    3.1643912   -0.0000631   0
    1  653.2249961  665.4253494  529.3169337  -0.0000   1.0000  -0.0000   -0.0008793    3.1643912   -0.0000631   0
    1  654.8553231  666.2356827  529.1948216  -0.0000   1.0000  -0.0000   -0.0008793    3.1643912   -0.0000631   0
    1  656.3854289  667.5820584  529.9691735  -0.0000   1.0000  -0.0000   -0.0008793    3.1643912   -0.0000631   0
    1  657.4985005  669.5039605  530.3955865  -0.0000   1.0000  -0.0000   -0.0008793    3.1643912   -0.0000631   0
    1  658.5765599  671.1752412  529.9151930  -0.0000   1.0000  -0.0000   -0.0008793    3.1643912   -0.0000631   0
    1  659.9590322  672.1079240  529.0711535  -0.0000   1.0000  -0.0000   -0.0008793    3.1643912   -0.0000631   0
    1  661.4238539  673.0757997  528.8058830  -0.0000   1.0000  -0.0000   -0.0008793    3.1643912   -0.0000631   0
    1  662.7852413  674.5127997  528.8846696  -0.0000   1.0000  -0.0000   -0.0008793    3.1643912   -0.0000631   0
    1  664.1039620  675.9042574  528.8190541  -0.0000   1.0000  -0.0000   -0.0008793    3.1643912   -0.0000631   0
    1  665.3402280  677.3522062  528.7795614  -0.0000   1.0000  -0.0000   -0.0008793    3.1643912   -0.0000631   0
    1  666.7061206  678.6912039  528.8902631  -0.0000   1.0000  -0.0000   -0.0008793    3.1643912   -0.0000631   0
    1  668.1161870  680.1210806  528.8307587  -0.0000   1.0000  -0.0000   -0.0008793    3.1643912   -0.0000631   0
    1  669.5439939  682.0227942  528.1354108  -0.0000   1.0000  -0.0000   -0.0008793    3.1643912   -0.0000631   0
    1  671.3369750  683.4912224  527.4344869  -0.0000   1.0000  -0.0000   -0.0008793    3.1643912   -0.0000631   0
    1  672.9013370  684.7734715  527.3963509  -0.0000   1.0000  -0.0000   -0.0008793    3.1643912   -0.0000631   0
    1  674.2549824  686.1560424  527.5234708  -0.0000   1.0000  -0.0000   -0.0008793    3.1643912   -0.0000631   0
    1  675.7621842  687.2431813  527.4888099  -0.0000   1.0000  -0.0000   -0.0008793    3.1643912   -0.0000631   0
    1  676.9093192  688.6326470  526.9757249  -0.0000   1.0000  -0.0000   -0.0008793    3.1643912   -0.0000631   0
    1  678.0320542  690.0388263  525.5281434  -0.0000   1.0000  -0.0000   -0.0008793    3.1643912   -0.0000631   0
    1  679.4830216  691.0130406  524.0607808  -0.0000   1.0000  -0.0000   -0.0008793    3.1643912   -0.0000631   0
    1  680.9896428  692.4028962  523.4760162  -0.0000   1.0000  -0.0000   -0.0008793    3.1643912   -0.0000631   0
    1  682.6203222  694.7778175  523.3126777  -0.0000   1.0000  -0.0000   -0.0008793    3.1643912   -0.0000631   0
    2  368.1524500  384.2389833  640.7818167  -1.0000  -0.0000  -0.0000   -3.1643592    0.0006236    0.0007885   0
    2  368.7214715  386.1178123  640.1717350  -1.0000  -0.0000  -0.0000   -3.1643592    0.0006236    0.0007885   0
    2  369.7917924  388.1330067  640.8331586  -1.0000  -0.0000  -0.0000   -3.1643592    0.0006236    0.0007885   0
    2  371.1986192  389.8691665  642.2803604  -1.0000  -0.0000  -0.0000   -3.1643592    0.0006236    0.0007885   0
    2  372.2958198  391.6716948  642.2394685  -1.0000  -0.0000  -0.0000   -3.1643592    0.0006236    0.0007885   0
    2  372.9874376  393.6596559  640.9461044  -1.0000  -0.0000  -0.0000   -3.1643592    0.0006236    0.0007885   0
    2  373.2382192  395.5435539  640.3401417  -1.0000  -0.0000  -0.0000   -3.1643592    0.0006236    0.0007885   0
    2  373.4733757  397.4995808  639.7266641  -1.0000  -0.0000  -0.0000   -3.1643592    0.0006236    0.0007885   0
    2  373.9872331  399.6281742  639.0764972  -1.0000  -0.0000  -0.0000   -3.1643592    0.0006236    0.0007885   0
    2  374.3985511  401.5811447  639.4985128  -1.0000  -0.0000  -0.0000   -3.1643592    0.0006236    0.0007885   0
    2  375.2783215  403.3161767  639.9831619  -1.0000  -0.0000  -0.0000   -3.1643592    0.0006236    0.0007885   0
    2  376.4463761  404.9265811  639.3285993  -1.0000  -0.0000  -0.0000   -3.1643592    0.0006236    0.0007885   0
    2  377.2009544  406.6193440  637.9462979  -1.0000  -0.0000  -0.0000   -3.1643592    0.0006236    0.0007885   0
    2  377.8859326  408.6036968  637.1170792  -1.0000  -0.0000  -0.0000   -3.1643592    0.0006236    0.0007885   0
    2  379.0274468  409.9444094  637.3693370  -1.0000  -0.0000  -0.0000   -3.1643592    0.0006236    0.0007885   0
    2  380.3868338  410.8785467  637.5573987  -1.0000  -0.0000  -0.0000   -3.1643592    0.0006236    0.0007885   0
    2  381.1430365  412.9030263  637.0388451  -1.0000  -0.0000  -0.0000   -3.1643592    0.0006236    0.0007885   0
    2  381.6084050  415.1993144  636.9169518  -1.0000  -0.0000  -0.0000   -3.1643592    0.0006236    0.0007885   0
    2  382.2747281  416.9273304  637.5669474  -1.0000  -0.0000  -0.0000   -3.1643592    0.0006236    0.0007885   0
    2  382.6124416  418.9203344  638.2073992  -1.0000  -0.0000  -0.0000   -3.1643592    0.0006236    0.0007885   0
    2  383.4097380  420.7479765  638.4806523  -1.0000  -0.0000  -0.0000   -3.1643592    0.0006236    0.0007885   0
    2  385.1042187  422.1148704  638.4966233  -1.0000  -0.0000  -0.0000   -3.1643592    0.0006236    0.0007885   0
    2  386.0161313  423.8468830  638.4033088  -1.0000  -0.0000  -0.0000   -3.1643592    0.0006236    0.0007885   0
    2  386.1198889  425.7948813  638.3308714  -1.0000  -0.0000  -0.0000   -3.1643592    0.0006236    0.0007885   0
    2  386.0896067  427.8315936  638.3946228  -1.0000  -0.0000  -0.0000   -3.1643592    0.0006236    0.0007885   0
    2  386.2681579  429.8115336  638.4831916  -1.0000  -0.0000  -0.0000   -3.1643592    0.0006236    0.0007885   0
    2  387.6716286  431.1543684  638.4585864  -1.0000  -0.0000  -0.0000   -3.1643592    0.0006236    0.0007885   0
    2  389.1712909  432.4259050  638.4381521  -1.0000  -0.0000  -0.0000   -3.1643592    0.0006236    0.0007885   0
    2  389.6052397  434.2768830  638.1328334  -1.0000  -0.0000  -0.0000   -3.1643592    0.0006236    0.0007885   0
    2  390.0999518  436.2212090  637.2951842  -1.0000  -0.0000  -0.0000   -3.1643592    0.0006236    0.0007885   0
    2  390.6922076  438.2979634  636.6512909  -1.0000  -0.0000  -0.0000   -3.1643592    0.0006236    0.0007885   0
    2  391.1908699  440.6997237  636.9989123  -1.0000  -0.0000  -0.0000   -3.1643592    0.0006236    0.0007885   0
    2  392.2345278  442.5368323  638.1146747  -1.0000  -0.0000  -0.0000   -3.1643592    0.0006236    0.0007885   0
    2  393.5804817  443.8384236  639.2384385  -1.0000  -0.0000  -0.0000   -3.1643592    0.0006236    0.0007885   0
    2  394.7740957  445.2908428  639.7765913  -1.0000  -0.0000  -0.0000   -3.1643592    0.0006236    0.0007885   0
    2  396.1010447  446.3527951  639.6227866  -1.0000  -0.0000  -0.0000   -3.1643592    0.0006236    0.0007885   0
    2  397.5988647  447.0168973  639.1238333  -1.0000  -0.0000  -0.0000   -3.1643592    0.0006236    0.0007885   0
    2  398.5691154  448.4852836  638.5167630  -1.0000  -0.0000  -0.0000   -3.1643592    0.0006236    0.0007885   0
    2  398.7867135  450.7647676  638.3854093  -1.0000  -0.0000  -0.0000   -3.1643592    0.0006236    0.0007885   0
    2  399.4295955  452.5076814  638.8229174  -1.0000  -0.0000  -0.0000   -3.1643592    0.0006236    0.0007885   0
    2  400.8961567  453.8195871  638.8056720  -1.0000  -0.0000  -0.0000   -3.1643592    0.0006236    0.0007885   0
    2  401.8364464  455.7741263  638.2348235  -1.0000  -0.0000  -0.0000   -3.1643592    0.0006236    0.0007885   0
    2  402.3054664  458.1844452  638.4249959  -1.0000  -0.0000  -0.0000   -3.1643592    0.0006236    0.0007885   0
    2  402.9573014  460.1168983  639.7217727  -1.0000  -0.0000  -0.0000   -3.1643592    0.0006236    0.0007885   0
    2  403.7291071  461.4392626  641.0110810  -1.0000  -0.0000  -0.0000   -3.1643592    0.0006236    0.0007885   0
    2  404.9854499  462.5100566  641.9329168  -1.0000  -0.0000  -0.0000   -3.1643592    0.0006236    0.0007885   0
    2  406.4253205  463.4175666  642.4906488  -1.0000  -0.0000  -0.0000   -3.1643592    0.0006236    0.0007885   0
    2  407.5452498  464.8884326  642.1600608  -1.0000  -0.0000  -0.0000   -3.1643592    0.0006236    0.0007885   0
    2  408.7932359  466.9651849  641.1336226  -1.0000  -0.0000  -0.0000   -3.1643592    0.0006236    0.0007885   0
    2  409.6471887  469.1427127  640.3016833  -1.0000  -0.0000  -0.0000   -3.1643592    0.0006236    0.0007885   0
    2  410.0362721  471.2698825  640.0185023  -1.0000  -0.0000  -0.0000   -3.1643592    0.0006236    0.0007885   0
    2  410.8698700  472.9964097  640.3136909  -1.0000  -0.0000  -0.0000   -3.1643592    0.0006236    0.0007885   0
    2  411.5696765  474.4860465  641.3495832  -1.0000  -0.0000  -0.0000   -3.1643592    0.0006236    0.0007885   0
    2  411.9997338  476.0523411  642.6874434  -1.0000  -0.0000  -0.0000   -3.1643592    0.0006236    0.0007885   0
    2  413.1670684  477.6218272  643.7459882  -1.0000  -0.0000  -0.0000   -3.1643592    0.0006236    0.0007885   0
    2  414.7851535  479.2001512  644.0733511  -1.0000  -0.0000  -0.0000   -3.1643592    0.0006236    0.0007885   0
    2  415.8206895  481.0525535  643.4119536  -1.0000  -0.0000  -0.0000   -3.1643592    0.0006236    0.0007885   0
    2  416.6216152  483.0588240  643.1527282  -1.0000  -0.0000  -0.0000   -3.1643592    0.0006236    0.0007885   0
    2  417.5658391  484.9626403  644.0543874  -1.0000  -0.0000  -0.0000   -3.1643592    0.0006236    0.0007885   0
    2  418.0441652  486.8390570  644.6741404  -1.0000  -0.0000  -0.0000   -3.1643592    0.0006236    0.0007885   0
    2  418.1749046  488.8222823  644.7715582  -1.0000  -0.0000  -0.0000   -3.1643592    0.0006236    0.0007885   0
    2  419.1678695  490.7126108  645.0908403  -1.0000  -0.0000  -0.0000   -3.1643592    0.0006236    0.0007885   0
    2  420.7000171  492.4891171  645.1045981  -1.0000  -0.0000  -0.0000   -3.1643592    0.0006236    0.0007885   0
    2  421.2076068  494.4954153  644.5274087  -1.0000  -0.0000  -0.0000   -3.1643592    0.0006236    0.0007885   0
    2  421.6493390  496.2667692  644.5008228  -1.0000  -0.0000  -0.0000   -3.1643592    0.0006236    0.0007885   0
    2  423.0328050  497.8464402  644.8835710  -1.0000  -0.0000  -0.0000   -3.1643592    0.0006236    0.0007885   0
    2  424.0619480  499.8968814  644.6641103  -1.0000  -0.0000  -0.0000   -3.1643592    0.0006236    0.0007885   0
    2  424.4598870  501.7703122  644.7947031  -1.0000  -0.0000  -0.0000   -3.1643592    0.0006236    0.0007885   0
    2  425.0927506  503.1733614  645.6429118  -1.0000  -0.0000  -0.0000   -3.1643592    0.0006236    0.0007885   0
    2  426.1402799  504.8471774  646.5803191  -1.0000  -0.0000  -0.0000   -3.1643592    0.0006236    0.0007885   0
    2  426.8615012  507.2020194  647.5542000  -1.0000  -0.0000  -0.0000   -3.1643592    0.0006236    0.0007885   0
    2  426.8064854  509.6028368  647.0776612  -1.0000  -0.0000  -0.0000   -3.1643592    0.0006236    0.0007885   0
    2  426.9278033  510.7165355  645.2498966  -1.0000  -0.0000  -0.0000   -3.1643592    0.0006236    0.0007885   0
    2  427.6783056  510.7785457  645.2157078  -1.0000  -0.0000  -0.0000   -3.1643592    0.0006236    0.0007885   0
    2  428.5215882  510.6225443  647.3027812  -1.0000  -0.0000  -0.0000   -3.1643592    0.0006236    0.0007885   0
    2  429.2867527  510.6323934  649.6391748  -1.0000  -0.0000  -0.0000   -3.1643592    0.0006236    0.0007885   0
    2  430.3492342  511.1171132  651.4482886  -1.0000  -0.0000  -0.0000   -3.1643592    0.0006236    0.0007885   0
    2  431.6587700  511.7018966  652.7278015  -1.0000  -0.0000  -0.0000   -3.1643592    0.0006236    0.0007885   0
    2  432.7482303  512.4438807  653.7273824  -1.0000  -0.0000  -0.0000   -3.1643592    0.0006236    0.0007885   0
    2  433.7370425  513.5879493  654.7191049  -1.0000  -0.0000  -0.0000   -3.1643592    0.0006236    0.0007885   0
    2  434.9396411  514.5369331  655.9090621  -1.0000  -0.0000  -0.0000   -3.1643592    0.0006236    0.0007885   0
    2  436.3080026  514.9092406  657.3564997  -1.0000  -0.0000  -0.0000   -3.1643592    0.0006236    0.0007885   0
    2  437.3170677  515.4426428  659.0389327  -1.0000  -0.0000  -0.0000   -3.1643592    0.0006236    0.0007885   0
    2  438.3241131  516.1528000  660.1239969  -1.0000  -0.0000  -0.0000   -3.1643592    0.0006236    0.0007885   0
    2  440.0255125  516.8347375  660.6257264  -1.0000  -0.0000  -0.0000   -3.1643592    0.0006236    0.0007885   0
    2  441.7687944  518.1139934  661.7468377  -1.0000  -0.0000  -0.0000   -3.1643592    0.0006236    0.0007885   0
    2  443.4076614  519.3756757  663.0597838  -1.0000  -0.0000  -0.0000   -3.1643592    0.0006236    0.0007885   0
    2  445.1266788  520.2302829  663.2241549  -1.0000  -0.0000  -0.0000   -3.1643592    0.0006236    0.0007885   0
    2  446.7206032  521.2665986  662.4764326  -1.0000  -0.0000  -0.0000   -3.1643592    0.0006236    0.0007885   0
    2  447.9046777  522.7251232  662.0045119  -1.0000  -0.0000  -0.0000   -3.1643592    0.0006236    0.0007885   0
    2  448.8469985  524.3516990  661.8743415  -1.0000  -0.0000  -0.0000   -3.1643592    0.0006236    0.0007885   0
    2  450.3952321  525.7336172  661.6074136  -1.0000  -0.0000  -0.0000   -3.1643592    0.0006236    0.0007885   0
    2  451.5021263  527.2148985  661.3389946  -1.0000  -0.0000  -0.0000   -3.1643592    0.0006236    0.0007885   0
    2  451.3288881  528.9151913  660.8106215  -1.0000  -0.0000  -0.0000   -3.1643592    0.0006236    0.0007885   0
    2  450.9868561  530.0524290  659.3368465  -1.0000  -0.0000  -0.0000   -3.1643592    0.0006236    0.0007885   0
    2  451.6420191  530.1714365  657.1232467  -1.0000  -0.0000  -0.0000   -3.1643592    0.0006236    0.0007885   0
    2  453.2217326  530.3079414  654.9278460  -1.0000  -0.0000  -0.0000   -3.1643592    0.0006236    0.0007885   0
    2  454.6424620  531.2391080  653.3482603  -1.0000  -0.0000  -0.0000   -3.1643592    0.0006236    0.0007885   0
    2  455.3391580  533.1488401  652.1168861  -1.0000  -0.0000  -0.0000   -3.1643592    0.0006236    0.0007885   0
    2  455.0491429  536.5639285  650.3469286  -1.0000  -0.0000  -0.0000   -3.1643592    0.0006236    0.0007885   0
    3  357.1110312  687.5981686  508.2859101   0.5000  -0.5000   0.5000    1.5820463   -1.5844820    1.5818198   0
    3  353.0730177  689.2820274  506.7500346   0.5000  -0.5000   0.5000    1.5820463   -1.5844820    1.5818198   0
    3  350.9329357  689.6654860  506.7125733   0.5000  -0.5000   0.5000    1.5820463   -1.5844820    1.5818198   0
    3  348.8635895  689.5553711  507.0721347   0.5000  -0.5000   0.5000    1.5820463   -1.5844820    1.5818198   0
    3  345.5347853  689.5050565  507.2169941   0.5000  -0.5000   0.5000    1.5820463   -1.5844820    1.5818198   0
    3  343.0385988  689.5608231  507.8086090   0.5000  -0.5000   0.5000    1.5820463   -1.5844820    1.5818198   0
    3  343.3645396  689.3200536  509.5806406   0.5000  -0.5000   0.5000    1.5820463   -1.5844820    1.5818198   0
    3  344.4622896  688.8467258  512.4914309   0.5000  -0.5000   0.5000    1.5820463   -1.5844820    1.5818198   0
    3  344.7396179  689.5586308  514.9875107   0.5000  -0.5000   0.5000    1.5820463   -1.5844820    1.5818198   0
    3  344.7669227  691.1076285  516.7287261   0.5000  -0.5000   0.5000    1.5820463   -1.5844820    1.5818198   0
    3  344.5893134  691.8430549  519.1324867   0.5000  -0.5000   0.5000    1.5820463   -1.5844820    1.5818198   0
    3  344.5629365  692.5274428  521.5366062   0.5000  -0.5000   0.5000    1.5820463   -1.5844820    1.5818198   0
    3  344.6377939  693.9233145  523.0868789   0.5000  -0.5000   0.5000    1.5820463   -1.5844820    1.5818198   0
    3  344.7878855  694.9960854  524.7322807   0.5000  -0.5000   0.5000    1.5820463   -1.5844820    1.5818198   0
    3  345.6842274  695.8089055  526.2621113   0.5000  -0.5000   0.5000    1.5820463   -1.5844820    1.5818198   0
    3  346.7056743  697.1871027  527.2462356   0.5000  -0.5000   0.5000    1.5820463   -1.5844820    1.5818198   0
    3  347.8920718  698.6449508  527.9520732   0.5000  -0.5000   0.5000    1.5820463   -1.5844820    1.5818198   0
    3  349.8324898  699.6332615  528.0770373   0.5000  -0.5000   0.5000    1.5820463   -1.5844820    1.5818198   0
    3  351.7322909  700.6788200  527.3736244   0.5000  -0.5000   0.5000    1.5820463   -1.5844820    1.5818198   0
    3  353.2493652  701.0824787  526.1784163   0.5000  -0.5000   0.5000    1.5820463   -1.5844820    1.5818198   0
    3  354.6135800  700.2677275  525.0830552   0.5000  -0.5000   0.5000    1.5820463   -1.5844820    1.5818198   0
    3  355.7667296  699.3489862  523.8333584   0.5000  -0.5000   0.5000    1.5820463   -1.5844820    1.5818198   0