ITEM: TIMESTEP
0
ITEM: NUMBER OF ATOMS
7562
ITEM: BOX BOUNDS pp pp pp 
0.0 695.670425
0.0 696.848988
0.0 698.037390
ITEM: ATOMS id x y z tbx tby tbz sbx sby sbz loop
    0  386.6616429  189.6688571  216.4682858   0.5000   0.5000  -0.5000    1.5824985    1.5843893   -1.5806945   0
    0  387.8081437  191.6259853  217.5355246   0.5000   0.5000  -0.5000    1.5824985    1.5843893   -1.5806945   0
    0  388.2804166  193.4646520  218.9082037   0.5000   0.5000  -0.5000    1.5824985    1.5843893   -1.5806945   0
    0  388.3906681  194.9355562  220.8288934   0.5000   0.5000  -0.5000    1.5824985    1.5843893   -1.5806945   0
    0  388.3061382  196.2961397  222.5356660   0.5000   0.5000  -0.5000    1.5824985    1.5843893   -1.5806945   0
    0  388.8997718  197.5477976  222.9881016   0.5000   0.5000  -0.5000    1.5824985    1.5843893   -1.5806945   0
    0  390.3534518  197.7285092  222.6299290   0.5000   0.5000  -0.5000    1.5824985    1.5843893   -1.5806945   0
    0  391.9670238  196.9792822  222.4616696   0.5000   0.5000  -0.5000    1.5824985    1.5843893   -1.5806945   0
    0  393.6389338  196.6151491  222.9031289   0.5000   0.5000  -0.5000    1.5824985    1.5843893   -1.5806945   0
    0  395.4648357  197.0106228  224.0272061   0.5000   0.5000  -0.5000    1.5824985    1.5843893   -1.5806945   0
    0  397.2781968  197.2172341  225.1318053   0.5000   0.5000  -0.5000    1.5824985    1.5843893   -1.5806945   0
    0  399.0865480  196.9180962  225.9505653   0.5000   0.5000  -0.5000    1.5824985    1.5843893   -1.5806945   0
    0  401.1312615  196.9849244  226.9375341   0.5000   0.5000  -0.5000    1.5824985    1.5843893   -1.5806945   0
    0  403.1845204  197.2498894  228.1299415   0.5000   0.5000  -0.5000    1.5824985    1.5843893   -1.5806945   0
    0  404.7864811  197.4840853  229.6483532   0.5000   0.5000  -0.5000    1.5824985    1.5843893   -1.5806945   0
    0  405.5750052  198.8007703  231.2859248   0.5000   0.5000  -0.5000    1.5824985    1.5843893   -1.5806945   0
    0  405.9629928  201.2145395  232.1511743   0.5000   0.5000  -0.5000    1.5824985    1.5843893   -1.5806945   0
    0  406.4143908  203.4530603  232.2099719   0.5000   0.5000  -0.5000    1.5824985    1.5843893   -1.5806945   0
    0  406.1208589  204.8478861  232.1820782   0.5000   0.5000  -0.5000    1.5824985    1.5843893   -1.5806945   0
    0  404.4807857  205.3892142  232.4646428   0.5000   0.5000  -0.5000    1.5824985    1.5843893   -1.5806945   0
    1   59.0764499  370.7445714  282.4647142   0.5000   0.5000  -0.5000    1.5824985    1.5843893   -1.5806945   0
    1   60.5021105  369.2726776  283.8221378   0.5000   0.5000  -0.5000    1.5824985    1.5843893   -1.5806945   0
    1   60.8836811  366.9579239  283.9140093   0.5000   0.5000  -0.5000    1.5824985    1.5843893   -1.5806945   0
    1   61.3997148  365.0051652  282.9128148   0.5000   0.5000  -0.5000    1.5824985    1.5843893   -1.5806945   0
    1   62.4043038  363.3244812  282.0197925   0.5000   0.5000  -0.5000    1.5824985    1.5843893   -1.5806945   0
    1   63.5851658  361.7200341  282.0469968   0.5000   0.5000  -0.5000    1.5824985    1.5843893   -1.5806945   0
    1   65.1565765  361.2558146  282.8833343   0.5000   0.5000  -0.5000    1.5824985    1.5843893   -1.5806945   0
    1   66.6294240  362.0105608  284.4177678   0.5000   0.5000  -0.5000    1.5824985    1.5843893   -1.5806945   0
    1   67.5285643  363.0888038  286.5613867   0.5000   0.5000  -0.5000    1.5824985    1.5843893   -1.5806945   0
    1   68.5006036  363.8663729  288.4723308   0.5000   0.5000  -0.5000    1.5824985    1.5843893   -1.5806945   0
    1   69.9533989  363.9256090  289.8136949   0.5000   0.5000  -0.5000    1.5824985    1.5843893   -1.5806945   0
    1   71.5581367  363.4104107  290.2462933   0.5000   0.5000  -0.5000    1.5824985    1.5843893   -1.5806945   0
    1   73.3412620  362.6855880  289.8119748   0.5000   0.5000  -0.5000    1.5824985    1.5843893   -1.5806945   0
    1   75.8785710  361.9321560  289.5064812   0.5000   0.5000  -0.5000    1.5824985    1.5843893   -1.5806945   0
    1   78.5410026  362.0276823  289.8040371   0.5000   0.5000  -0.5000    1.5824985    1.5843893   -1.5806945   0
    1   80.2176457  362.7616282  290.8429866   0.5000   0.5000  -0.5000    1.5824985    1.5843893   -1.5806945   0
    1   80.9499427  363.7531808  292.1404230   0.5000   0.5000  -0.5000    1.5824985    1.5843893   -1.5806945   0
    1   81.1258837  365.3906742  293.1657488   0.5000   0.5000  -0.5000    1.5824985    1.5843893   -1.5806945   0
    1   81.4679003  366.9272575  294.3256716   0.5000   0.5000  -0.5000    1.5824985    1.5843893   -1.5806945   0
    1   82.1938506  368.6259269  295.6314222   0.5000   0.5000  -0.5000    1.5824985    1.5843893   -1.5806945   0
    1   82.3771217  371.0508228  296.2642288   0.5000   0.5000  -0.5000    1.5824985    1.5843893   -1.5806945   0
    1   81.1484881  372.9228717  296.2367037   0.5000   0.5000  -0.5000    1.5824985    1.5843893   -1.5806945   0
    1   79.5087850  374.1420846  296.0218026   0.5000   0.5000  -0.5000    1.5824985    1.5843893   -1.5806945   0
    1   79.1440981  375.7410366  296.0753765   0.5000   0.5000  -0.5000    1.5824985    1.5843893   -1.5806945   0
    1   79.4137675  377.3240500  297.2050597   0.5000   0.5000  -0.5000    1.5824985    1.5843893   -1.5806945   0
    1   79.2123453  378.8326809  299.0122337   0.5000   0.5000  -0.5000    1.5824985    1.5843893   -1.5806945   0
    1   79.2305841  380.6018394  300.7553158   0.5000   0.5000  -0.5000    1.5824985    1.5843893   -1.5806945   0
    1   80.2606982  381.6926760  302.7445031   0.5000   0.5000  -0.5000    1.5824985    1.5843893   -1.5806945   0
    1   81.9423900  381.8963386  304.4540481   0.5000   0.5000  -0.5000    1.5824985    1.5843893   -1.5806945   0
    1   83.0106637  382.2101192  305.6375234   0.5000   0.5000  -0.5000    1.5824985    1.5843893   -1.5806945   0
    1   82.4969411  383.2266945  306.8263588   0.5000   0.5000  -0.5000    1.5824985    1.5843893   -1.5806945   0
    1   81.1553596  385.0074829  307.6546048   0.5000   0.5000  -0.5000    1.5824985    1.5843893   -1.5806945   0
    1   80.1109209  387.0461075  308.3282604   0.5000   0.5000  -0.5000    1.5824985    1.5843893   -1.5806945   0
    1   78.7635479  388.7937548  308.9134417   0.5000   0.5000  -0.5000    1.5824985    1.5843893   -1.5806945   0
    1   76.6477796  389.8788409  308.3581234   0.5000   0.5000  -0.5000    1.5824985    1.5843893   -1.5806945   0
    1   75.4894993  390.1957319  306.8203367   0.5000   0.5000  -0.5000    1.5824985    1.5843893   -1.5806945   0
    1   76.3906589  390.4445800  306.5602563   0.5000   0.5000  -0.5000    1.5824985    1.5843893   -1.5806945   0
    1   77.5504749  390.9896827  308.5982865   0.5000   0.5000  -0.5000    1.5824985    1.5843893   -1.5806945   0
    1   77.2238580  392.0168257  311.0194365   0.5000   0.5000  -0.5000    1.5824985    1.5843893   -1.5806945   0
    1   76.2426951  393.8069015  312.5761912   0.5000   0.5000  -0.5000    1.5824985    1.5843893   -1.5806945   0
    1   75.8715108  395.6894200  314.0106035   0.5000   0.5000  -0.5000    1.5824985    1.5843893   -1.5806945   0
    1   75.4717530  397.5917560  315.4874552   0.5000   0.5000  -0.5000    1.5824985    1.5843893   -1.5806945   0
    1   74.5597248  399.8302649  316.2201013   0.5000   0.5000  -0.5000    1.5824985    1.5843893   -1.5806945   0
    1   73.6603598  401.5648389  316.5672517   0.5000   0.5000  -0.5000    1.5824985    1.5843893   -1.5806945   0
    1   72.8058439  402.9906995  317.7505126   0.5000   0.5000  -0.5000    1.5824985    1.5843893   -1.5806945   0
    1   72.2702548  404.4917692  319.8956384   0.5000   0.5000  -0.5000    1.5824985    1.5843893   -1.5806945   0
    1   72.3318487  405.4505892  321.9056807   0.5000   0.5000  -0.5000    1.5824985    1.5843893   -1.5806945   0
    1   73.0198637  405.9110252  323.1494455   0.5000   0.5000  -0.5000    1.5824985    1.5843893   -1.5806945   0
    1   74.1257081  405.8763561  324.4604657   0.5000   0.5000  -0.5000    1.5824985    1.5843893   -1.5806945   0
    1   74.9918567  405.8539015  326.8449606   0.5000   0.5000  -0.5000    1.5824985    1.5843893   -1.5806945   0
    1   75.5406769  406.8938390  329.1806058   0.5000   0.5000  -0.5000    1.5824985    1.5843893   -1.5806945   0
    1   76.1949204  408.5067002  330.5987998   0.5000   0.5000  -0.5000    1.5824985    1.5843893   -1.5806945   0
    1   77.1021144  409.9465804  332.5679319   0.5000   0.5000  -0.5000    1.5824985    1.5843893   -1.5806945   0
    1   77.9671602  411.2175043  335.1590207   0.5000   0.5000  -0.5000    1.5824985    1.5843893   -1.5806945   0
    1   78.5389121  412.0314961  337.4542778   0.5000   0.5000  -0.5000    1.5824985    1.5843893   -1.5806945   0
    1   79.4407142  412.4352617  339.5571786   0.5000   0.5000  -0.5000    1.5824985    1.5843893   -1.5806945   0
    1   80.9912097  412.3277077  341.0033142   0.5000   0.5000  -0.5000    1.5824985    1.5843893   -1.5806945   0
    1   81.3861506  412.6652524  341.7990906   0.5000   0.5000  -0.5000    1.5824985    1.5843893   -1.5806945   0
    1   80.2529262  414.4815345  343.2653675   0.5000   0.5000  -0.5000    1.5824985    1.5843893   -1.5806945   0
    1   79.9042620  416.2191161  345.4777528   0.5000   0.5000  -0.5000    1.5824985    1.5843893   -1.5806945   0
    1   80.8936211  416.5360617  347.3777107   0.5000   0.5000  -0.5000    1.5824985    1.5843893   -1.5806945   0
    1   82.4295377  415.2847458  348.7954564   0.5000   0.5000  -0.5000    1.5824985    1.5843893   -1.5806945   0
    1   83.4335543  414.1254824  349.6984012   0.5000   0.5000  -0.5000    1.5824985    1.5843893   -1.5806945   0
    1   83.5780259  415.2308503  350.0412016   0.5000   0.5000  -0.5000    1.5824985    1.5843893   -1.5806945   0
    1   83.9492050  417.5333532  350.9286393   0.5000   0.5000  -0.5000    1.5824985    1.5843893   -1.5806945   0
    1   84.3729366  419.6856503  352.2252282   0.5000   0.5000  -0.5000    1.5824985    1.5843893   -1.5806945   0
    1   84.5157709  421.6328555  352.9305464   0.5000   0.5000  -0.5000    1.5824985    1.5843893   -1.5806945   0
    1   84.1713734  423.4449278  354.5335464   0.5000   0.5000  -0.5000    1.5824985    1.5843893   -1.5806945   0
    1   82.5445374  425.9641964  358.2191607   0.5000   0.5000  -0.5000    1.5824985    1.5843893   -1.5806945   0
    2  566.1008211  651.5117778  595.4700649   0.5000   0.5000   0.5000    1.5788375    1.5804071    1.5835421   1
    2  564.9099614  650.5291546  595.8963481   0.5000   0.5000   0.5000    1.5788375    1.5804071    1.5835421   1
    2  564.0743911  649.1078338  597.5973403   0.5000   0.5000   0.5000    1.5788375    1.5804071    1.5835421   1
    2  563.7985074  648.2379195  599.9250608   0.5000   0.5000   0.5000    1.5788375    1.5804071    1.5835421   1
    2  563.0914966  648.0146090  602.1880829   0.5000   0.5000   0.5000    1.5788375    1.5804071    1.5835421   1
    2  561.0960409  648.2306135  603.1893131   0.5000   0.5000   0.5000    1.5788375    1.5804071    1.5835421   1
    2  559.3613489  649.5812681  603.2343902   0.5000   0.5000   0.5000    1.5788375    1.5804071    1.5835421   1
    2  558.7983973  652.0058607  603.0016196   0.5000   0.5000   0.5000    1.5788375    1.5804071    1.5835421   1
    2  558.4403452  653.9102036  601.9877331   0.5000   0.5000   0.5000    1.5788375    1.5804071    1.5835421   1
    2  557.9753826  655.0614966  600.2169480   0.5000   0.5000   0.5000    1.5788375    1.5804071    1.5835421   1
    2  557.5448453  656.2879391  598.2814147   0.5000   0.5000   0.5000    1.5788375    1.5804071    1.5835421   1
    2  557.5847965  657.0977979  596.1005342   0.5000   0.5000   0.5000    1.5788375    1.5804071    1.5835421   1
    2  558.9617460  657.1897305  594.4641727   0.5000   0.5000   0.5000    1.5788375    1.5804071    1.5835421   1
    2  561.1570503  656.8827074  593.6691663   0.5000   0.5000   0.5000    1.5788375    1.5804071    1.5835421   1
    2  562.7681384  655.9676513  592.8386694   0.5000   0.5000   0.5000    1.5788375    1.5804071    1.5835421   1
    2  563.8711825  654.7913803  591.9016407   0.5000   0.5000   0.5000    1.5788375    1.5804071    1.5835421   1
    2  565.0577954  654.0605620  591.5145093   0.5000   0.5000   0.5000    1.5788375    1.5804071    1.5835421   1
    2  565.9450065  653.3208974  592.6342981   0.5000   0.5000   0.5000    1.5788375    1.5804071    1.5835421   1
    2  566.1008211  651.5117777  595.4700650   0.5000   0.5000   0.5000    1.5788375    1.5804071    1.5835421   1
    3  499.8929539  521.4955665  688.6034364  -0.5000  -0.5000   0.5000   -1.5824985   -1.5843893    1.5806945   1
    3  498.1667228  521.1417277  689.8977875  -0.5000  -0.5000   0.5000   -1.5824985   -1.5843893    1.5806945   1
    3  496.4626624  521.3501560  691.6165929  -0.5000  -0.5000   0.5000   -1.5824985   -1.5843893    1.5806945   1
    3  496.5768051  522.6175525  692.9559807  -0.5000  -0.5000   0.5000   -1.5824985   -1.5843893    1.5806945   1
    3  497.5718314  524.2082108  694.0693040  -0.5000  -0.5000   0.5000   -1.5824985   -1.5843893    1.5806945   1
    3  497.9183484  525.6556774  695.6494839  -0.5000  -0.5000   0.5000   -1.5824985   -1.5843893    1.5806945   1
    3  497.8004687  527.3223847  697.2896233  -0.5000  -0.5000   0.5000   -1.5824985   -1.5843893    1.5806945   1
    3  497.8705236  529.0377400  699.0351611  -0.5000  -0.5000   0.5000   -1.5824985   -1.5843893    1.5806945   1
    3  497.8079971  530.4102318  701.0910088  -0.5000  -0.5000   0.5000   -1.5824985   -1.5843893    1.5806945   1
    3  497.7175126  532.0462505  702.5510965  -0.5000  -0.5000   0.5000   -1.5824985   -1.5843893    1.5806945   1
    3  497.7953832  534.1011916  703.3849232  -0.5000  -0.5000   0.5000   -1.5824985   -1.5843893    1.5806945   1
    3  498.0756327  535.2488681  704.8352450  -0.5000  -0.5000   0.5000   -1.5824985   -1.5843893    1.5806945   1
    3  498.9528196  535.0221131  706.4450680  -0.5000  -0.5000   0.5000   -1.5824985   -1.5843893    1.5806945   1
    3  500.6575561  533.8825154  707.1139573  -0.5000  -0.5000   0.5000   -1.5824985   -1.5843893    1.5806945   1
    3  502.3315052  532.0067601  706.8005250  -0.5000  -0.5000   0.5000   -1.5824985   -1.5843893    1.5806945   1
    3  502.9161527  530.1489504  705.3219138  -0.5000  -0.5000   0.5000   -1.5824985   -1.5843893    1.5806945   1
    3  503.1040370  528.9538416  703.4964779  -0.5000  -0.5000   0.5000   -1.5824985   -1.5843893    1.5806945   1
    3  503.4933627  528.0279631  701.9256116  -0.5000  -0.5000   0.5000   -1.5824985   -1.5843893    1.5806945   1
    3  503.6520089  526.9117009  700.2049058  -0.5000  -0.5000   0.5000   -1.5824985   -1.5843893    1.5806945   1
    3  504.5257195  525.6480135  698.8761509  -0.5000  -0.5000   0.5000   -1.5824985   -1.5843893    1.5806945   1
    3  506.3140556  524.5949451  697.7833585  -0.5000  -0.5000   0.5000   -1.5824985   -1.5843893    1.5806945   1
    3  507.4640180  523.3491456  696.4377485  -0.5000  -0.5000   0.5000   -1.5824985   -1.5843893    1.5806945   1
    3  507.5405383  521.7816213  695.0172046  -0.5000  -0.5000   0.5000   -1.5824985   -1.5843893    1.5806945   1
    3  507.0742983  520.2488102  693.6713693  -0.5000  -0.5000   0.5000   -1.5824985   -1.5843893    1.5806945   1
    3  506.4147541  518.9169637  692.6397853  -0.5000  -0.5000   0.5000   -1.5824985   -1.5843893    1.5806945   1
    3  505.6717555  519.0588584  692.0436656  -0.5000  -0.5000   0.5000   -1.5824985   -1.5843893    1.5806945   1
    3  504.4650292  520.4726443  691.6838897  -0.5000  -0.5000   0.5000   -1.5824985   -1.5843893    1.5806945   1
    3  502.4931183  521.2656992  691.1098923  -0.5000  -0.5000   0.5000   -1.5824985   -1.5843893    1.5806945   1
    3  501.0762524  521.4157746  690.0698378  -0.5000  -0.5000   0.5000   -1.5824985   -1.5843893    1.5806945   1
    3  499.8929539  521.4955665  688.6034364  -0.5000  -0.5000   0.5000   -1.5824985   -1.5843893    1.5806945   1
    4  674.4000637  491.7193067  412.9589850  -0.5000  -0.5000   0.5000   -1.5824985   -1.5843893    1.5806945   0
    4  670.8115944  492.9652921  412.0078184  -0.5000  -0.5000   0.5000   -1.5824985   -1.5843893    1.5806945   0
    4  668.9056666  494.6566278  412.3940818  -0.5000  -0.5000   0.5000   -1.5824985   -1.5843893    1.5806945   0
    4  667.8330922  496.5027210  413.5975484  -0.5000  -0.5000   0.5000   -1.5824985   -1.5843893    1.5806945   0
    4  666.8653932  498.3686798  414.6344793  -0.5000  -0.5000   0.5000   -1.5824985   -1.5843893    1.5806945   0
    4  666.0635041  500.0654550  415.9093117  -0.5000  -0.5000   0.5000   -1.5824985   -1.5843893    1.5806945   0
    4  664.7503019  501.7918517  417.3941081  -0.5000  -0.5000   0.5000   -1.5824985   -1.5843893    1.5806945   0
    4  663.2891735  503.5104036  418.3954621  -0.5000  -0.5000   0.5000   -1.5824985   -1.5843893    1.5806945   0
    4  663.5009464  504.5841139  419.3720522  -0.5000  -0.5000   0.5000   -1.5824985   -1.5843893    1.5806945   0
    4  664.8697733  505.2699050  420.8859889  -0.5000  -0.5000   0.5000   -1.5824985   -1.5843893    1.5806945   0
    4  666.2258372  506.0267126  422.5043796  -0.5000  -0.5000   0.5000   -1.5824985   -1.5843893    1.5806945   0
    4  667.5160194  506.8095984  423.8274293  -0.5000  -0.5000   0.5000   -1.5824985   -1.5843893    1.5806945   0
    4  668.4099621  507.9632893  424.7771483  -0.5000  -0.5000   0.5000   -1.5824985   -1.5843893    1.5806945   0
    4  669.3040232  508.9285004  425.6662236  -0.5000  -0.5000   0.5000   -1.5824985   -1.5843893    1.5806945   0
    4  670.5502294  508.7189895  426.7640354  -0.5000  -0.5000   0.5000   -1.5824985   -1.5843893    1.5806945   0
    4  671.8518319  508.7077907  428.0605375  -0.5000  -0.5000   0.5000   -1.5824985   -1.5843893    1.5806945   0
    4  673.1010308  509.5008571  429.9659165  -0.5000  -0.5000   0.5000   -1.5824985   -1.5843893    1.5806945   0
    4  674.4081038  509.5310687  431.6863898  -0.5000  -0.5000   0.5000   -1.5824985   -1.5843893    1.5806945   0
    4  675.7970511  509.0290617  431.6447736  -0.5000  -0.5000   0.5000   -1.5824985   -1.5843893    1.5806945   0
    4  676.8967850  508.5441065  430.1031315  -0.5000  -0.5000   0.5000   -1.5824985   -1.5843893    1.5806945   0
    4  677.7730867  507.4075868  428.4619000  -0.5000  -0.5000   0.5000   -1.5824985   -1.5843893    1.5806945   0
    4  679.1726342  506.1909095  426.9708491  -0.5000  -0.5000   0.5000   -1.5824985   -1.5843893    1.5806945   0
    4  680.0326104  505.7215545  425.6754622  -0.5000  -0.5000   0.5000   -1.5824985   -1.5843893    1.5806945   0
    4  679.1745130  505.0968389  426.0128517  -0.5000  -0.5000   0.5000   -1.5824985   -1.5843893    1.5806945   0
    4  678.5229662  503.3566041  427.1219040  -0.5000  -0.5000   0.5000   -1.5824985   -1.5843893    1.5806945   0
    4  678.7371519  501.3093736  426.3346847  -0.5000  -0.5000   0.5000   -1.5824985   -1.5843893    1.5806945   0
    4  678.6010717  500.1677239  424.0708666  -0.5000  -0.5000   0.5000   -1.5824985   -1.5843893    1.5806945   0
    4  678.3336394  499.1646178  422.2390211  -0.5000  -0.5000   0.5000   -1.5824985   -1.5843893    1.5806945   0
    4  678.1279121  497.3524030  420.9503498  -0.5000  -0.5000   0.5000   -1.5824985   -1.5843893    1.5806945   0
    4  677.4699282  495.8206831  419.4173225  -0.5000  -0.5000   0.5000   -1.5824985   -1.5843893    1.5806945   0
    4  676.9199639  494.8855155  417.6585726  -0.5000  -0.5000   0.5000   -1.5824985   -1.5843893    1.5806945   0
    4  676.9532117  493.9808346  416.3596069  -0.5000  -0.5000   0.5000   -1.5824985   -1.5843893    1.5806945   0
    4  676.2477477  493.0569383  415.2259292  -0.5000  -0.5000   0.5000   -1.5824985   -1.5843893    1.5806945   0
    4  674.4000637  491.7193067  412.9589850  -0.5000  -0.5000   0.5000   -1.5824985   -1.5843893    1.5806945   0
    5  628.5593485  198.8196545  185.5324152   0.5000  -0.5000   0.5000    1.5817436   -1.5838585    1.5800882   0
    5  631.6015967  197.6415654  185.2403796   0.5000  -0.5000   0.5000    1.5817436   -1.5838585    1.5800882   0
    5  634.1132814  196.8723513  186.0191731   0.5000  -0.5000   0.5000    1.5817436   -1.5838585    1.5800882   0
    5  635.9054969  197.2086608  187.0603744   0.5000  -0.5000   0.5000    1.5817436   -1.5838585    1.5800882   0
    5  636.6509782  197.8116320  188.3824201   0.5000  -0.5000   0.5000    1.5817436   -1.5838585    1.5800882   0
    5  636.4854761  198.1078914  190.0415827   0.5000  -0.5000   0.5000    1.5817436   -1.5838585    1.5800882   0
    5  636.1625364  198.5625543  191.8148622   0.5000  -0.5000   0.5000    1.5817436   -1.5838585    1.5800882   0
    5  636.1814485  198.8791563  194.1396887   0.5000  -0.5000   0.5000    1.5817436   -1.5838585    1.5800882   0
    5  636.2991486  199.5992678  196.3164480   0.5000  -0.5000   0.5000    1.5817436   -1.5838585    1.5800882   0
    5  636.7272305  201.5212336  197.0669129   0.5000  -0.5000   0.5000    1.5817436   -1.5838585    1.5800882   0
    5  638.2698750  203.0861724  196.9114430   0.5000  -0.5000   0.5000    1.5817436   -1.5838585    1.5800882   0
    5  640.1875653  204.0305572  196.3934148   0.5000  -0.5000   0.5000    1.5817436   -1.5838585    1.5800882   0
    5  641.4144183  205.7451302  195.8278022   0.5000  -0.5000   0.5000    1.5817436   -1.5838585    1.5800882   0
    5  642.5116772  207.4486173  195.7920461   0.5000  -0.5000   0.5000    1.5817436   -1.5838585    1.5800882   0
    5  644.2520757  208.1258481  195.7748889   0.5000  -0.5000   0.5000    1.5817436   -1.5838585    1.5800882   0
    5  646.3114326  208.6095110  195.8625575   0.5000  -0.5000   0.5000    1.5817436   -1.5838585    1.5800882   0
    5  648.1067283  208.6820083  196.3931806   0.5000  -0.5000   0.5000    1.5817436   -1.5838585    1.5800882   0
    5  649.0480516  206.6646657  196.7685355   0.5000  -0.5000   0.5000    1.5817436   -1.5838585    1.5800882   0
    5  649.0998000  204.8852164  197.0194129   0.5000  -0.5000   0.5000    1.5817436   -1.5838585    1.5800882   0
    5  649.5577949  206.5620920  197.2794607   0.5000  -0.5000   0.5000    1.5817436   -1.5838585    1.5800882   0
    5  651.1776308  209.1724117  197.6333419   0.5000  -0.5000   0.5000    1.5817436   -1.5838585    1.5800882   0
    5  653.3602712  210.2094732  198.7118096   0.5000  -0.5000   0.5000    1.5817436   -1.5838585    1.5800882   0
    5  654.8189724  210.8776897  200.5760642   0.5000  -0.5000   0.5000    1.5817436   -1.5838585    1.5800882   0
    5  654.9168782  213.0256924  202.1334640   0.5000  -0.5000   0.5000    1.5817436   -1.5838585    1.5800882   0
    5  654.9021128  216.1943618  202.9323788   0.5000  -0.5000   0.5000    1.5817436   -1.5838585    1.5800882   0
    5  655.3683150  218.1960186  203.9655905   0.5000  -0.5000   0.5000    1.5817436   -1.5838585    1.5800882   0
    5  654.9748004  219.2827234  204.8595293   0.5000  -0.5000   0.5000    1.5817436   -1.5838585    1.5800882   0
    5  653.7715332  220.6518543  205.5776693   0.5000  -0.5000   0.5000    1.5817436   -1.5838585    1.5800882   0
    5  652.7797735  222.2978414  206.9271086   0.5000  -0.5000   0.5000    1.5817436   -1.5838585    1.5800882   0
    5  651.7255631  224.0136839  207.9597101   0.5000  -0.5000   0.5000    1.5817436   -1.5838585    1.5800882   0
    5  650.4514141  225.5087802  208.6551691   0.5000  -0.5000   0.5000    1.5817436   -1.5838585    1.5800882   0
    5  649.4415432  226.5174306  210.1943029   0.5000  -0.5000   0.5000    1.5817436   -1.5838585    1.5800882   0
    5  649.0141493  227.4625886  212.1094548   0.5000  -0.5000   0.5000    1.5817436   -1.5838585    1.5800882   0
    5  648.6280462  229.2299244  213.0437219   0.5000  -0.5000   0.5000    1.5817436   -1.5838585    1.5800882   0
    5  647.5222074  231.3053175  213.3278012   0.5000  -0.5000   0.5000    1.5817436   -1.5838585    1.5800882   0
    5  645.9712785  232.9058917  213.9716725   0.5000  -0.5000   0.5000    1.5817436   -1.5838585    1.5800882   0
    5  644.5330678  234.3424939  214.8538656   0.5000  -0.5000   0.5000    1.5817436   -1.5838585    1.5800882   0
    5  642.9215554  235.6159094  215.1516145   0.5000  -0.5000   0.5000    1.5817436   -1.5838585    1.5800882   0
    5  640.8646753  236.5720108  214.7024154   0.5000  -0.5000   0.5000    1.5817436   -1.5838585    1.5800882   0
    5  638.3855218  237.1631084  214.2937568   0.5000  -0.5000   0.5000    1.5817436   -1.5838585    1.5800882   0
    5  635.2697147  237.3559791  214.1492947   0.5000  -0.5000   0.5000    1.5817436   -1.5838585    1.5800882   0
    5  632.2018999  237.3112539  214.1581571   0.5000  -0.5000   0.5000    1.5817436   -1.5838585    1.5800882   0
    5  629.7635499  236.9725549  214.6102668   0.5000  -0.5000   0.5000    1.5817436   -1.5838585    1.5800882   0
    5  627.4135563  236.5825475  215.1591819   0.5000  -0.5000   0.5000    1.5817436   -1.5838585    1.5800882   0
    5  625.2024756  236.6589661  215.0510883   0.5000  -0.5000   0.5000    1.5817436   -1.5838585    1.5800882   0
    5  623.3576787  236.7173573  214.1617123   0.5000  -0.5000   0.5000    1.5817436   -1.5838585    1.5800882   0
    5  622.0596623  236.2851854  212.6311805   0.5000  -0.5000   0.5000    1.5817436   -1.5838585    1.5800882   0
    5  622.1394452  235.7623365  211.0215065   0.5000  -0.5000   0.5000    1.5817436   -1.5838585    1.5800882   0
    5  623.6877546  235.4389095  209.8023023   0.5000  -0.5000   0.5000    1.5817436   -1.5838585    1.5800882   0
    5  625.2874923  235.1390852  208.2949078   0.5000  -0.5000   0.5000    1.5817436   -1.5838585    1.5800882   0
    5  625.9751418  234.2172627  206.2138471   0.5000  -0.5000   0.5000    1.5817436   -1.5838585    1.5800882   0
    5  625.6678824  232.6966505  204.6545266   0.5000  -0.5000   0.5000    1.5817436   -1.5838585    1.5800882   0
    5  624.5682631  230.7577663  204.1112358   0.5000  -0.5000   0.5000    1.5817436   -1.5838585    1.5800882   0
    5  623.6876364  228.0854250  204.1947360   0.5000  -0.5000   0.5000    1.5817436   -1.5838585    1.5800882   0
    5  622.9073104  225.6657572  205.0490668   0.5000  -0.5000   0.5000    1.5817436   -1.5838585    1.5800882   0
    5  621.6734881  225.0836185  206.4969907   0.5000  -0.5000   0.5000    1.5817436   -1.5838585    1.5800882   0
    5  620.4463694  225.8264890  207.9730509   0.5000  -0.5000   0.5000    1.5817436   -1.5838585    1.5800882   0
    5  618.6572399  226.3290068  209.0925418   0.5000  -0.5000   0.5000    1.5817436   -1.5838585    1.5800882   0
    5  615.8972862  226.4210395  209.3865450   0.5000  -0.5000   0.5000    1.5817436   -1.5838585    1.5800882   0
    5  613.6711808  226.2246688  208.7250583   0.5000  -0.5000   0.5000    1.5817436   -1.5838585    1.5800882   0
    5  612.4264412  225.4882029  207.4974197   0.5000  -0.5000   0.5000    1.5817436   -1.5838585    1.5800882   0
    5  611.3642204  224.2841668  206.5340365   0.5000  -0.5000   0.5000    1.5817436   -1.5838585    1.5800882   0
    5  611.1344351  222.5468152  206.1802730   0.5000  -0.5000   0.5000    1.5817436   -1.5838585    1.5800882   0
    5  611.8230701  220.3516431  205.9690737   0.5000  -0.5000   0.5000    1.5817436   -1.5838585    1.5800882   0
    5  612.3738508  218.2350832  205.7126005   0.5000  -0.5000   0.5000    1.5817436   -1.5838585    1.5800882   0
    5  612.6100022  216.3128347  206.2094819   0.5000  -0.5000   0.5000    1.5817436   -1.5838585    1.5800882   0
    5  612.8219445  214.2734444  207.9200555   0.5000  -0.5000   0.5000    1.5817436   -1.5838585    1.5800882   0
    6  283.8348486  239.9111742  653.6614428   0.5000   0.5000   0.5000    1.5788375    1.5804071    1.5835421   1
    6  284.6347015  239.6418764  651.4346461   0.5000   0.5000   0.5000    1.5788375    1.5804071    1.5835421   1
    6  285.4988552  239.2946022  648.7554168   0.5000   0.5000   0.5000    1.5788375    1.5804071    1.5835421   1
    6  286.4980193  238.7453297  646.1622520   0.5000   0.5000   0.5000    1.5788375    1.5804071    1.5835421   1
    6  288.0179584  237.8121628  644.3813763   0.5000   0.5000   0.5000    1.5788375    1.5804071    1.5835421   1
    6  289.8388215  237.3140476  643.0361628   0.5000   0.5000   0.5000    1.5788375    1.5804071    1.5835421   1
    6  291.6012772  237.4178461  641.5308051   0.5000   0.5000   0.5000    1.5788375    1.5804071    1.5835421   1
    6  293.3184009  237.1127477  640.4125011   0.5000   0.5000   0.5000    1.5788375    1.5804071    1.5835421   1
    6  295.2568836  235.7534426  640.0372670   0.5000   0.5000   0.5000    1.5788375    1.5804071    1.5835421   1
    6  296.8122297  233.8680005  640.3458771   0.5000   0.5000   0.5000    1.5788375    1.5804071    1.5835421   1
    6  296.8262653  232.2835994  641.3370454   0.5000   0.5000   0.5000    1.5788375    1.5804071    1.5835421   1
    6  296.0038275  231.2731480  642.9642208   0.5000   0.5000   0.5000    1.5788375    1.5804071    1.5835421   1
    6  295.2629848  230.6080600  644.9811757   0.5000   0.5000   0.5000    1.5788375    1.5804071    1.5835421   1
    6  294.0251080  229.8321897  646.7722577   0.5000   0.5000   0.5000    1.5788375    1.5804071    1.5835421   1
    6  292.3383645  228.9356613  647.8063003   0.5000   0.5000   0.5000    1.5788375    1.5804071    1.5835421   1
    6  291.0045628  228.7945464  648.3881846   0.5000   0.5000   0.5000    1.5788375    1.5804071    1.5835421   1
    6  290.1445278  230.0068961  649.8297214   0.5000   0.5000   0.5000    1.5788375    1.5804071    1.5835421   1
    6  289.4201873  231.3403523  651.6134074   0.5000   0.5000   0.5000    1.5788375    1.5804071    1.5835421   1
    6  288.3578258  232.0503139  651.9561503   0.5000   0.5000   0.5000    1.5788375    1.5804071    1.5835421   1
    6  286.5566303  232.7961723  651.1165217   0.5000   0.5000   0.5000    1.5788375    1.5804071    1.5835421   1