ITEM: TIMESTEP
0
ITEM: NUMBER OF ATOMS
9899
ITEM: BOX BOUNDS pp pp pp 
0.0 696.093826
0.0 696.494122
0.0 697.853884
ITEM: ATOMS id x y z tbx tby tbz sbx sby sbz loop
    0  198.5885083  114.7668751  156.9861298  -0.5000  -0.5000   0.5000   -1.5824673   -1.5834854    1.5828465   1
    0  198.4250496  115.5851407  156.0932747  -0.5000  -0.5000   0.5000   -1.5824673   -1.5834854    1.5828465   1
    0  197.1870284  117.0114376  154.9426844  -0.5000  -0.5000   0.5000   -1.5824673   -1.5834854    1.5828465   1
    0  195.9704325  119.2594297  154.7108274  -0.5000  -0.5000   0.5000   -1.5824673   -1.5834854    1.5828465   1
    0  195.7450110  121.3202186  155.0051405  -0.5000  -0.5000   0.5000   -1.5824673   -1.5834854    1.5828465   1
    0  195.5443345  122.6356511  155.3632150  -0.5000  -0.5000   0.5000   -1.5824673   -1.5834854    1.5828465   1
    0  194.5125906  123.9624319  156.0452951  -0.5000  -0.5000   0.5000   -1.5824673   -1.5834854    1.5828465   1
    0  193.8274476  125.1133162  157.7030298  -0.5000  -0.5000   0.5000   -1.5824673   -1.5834854    1.5828465   1
    0  194.0757420  125.8024192  160.0095569  -0.5000  -0.5000   0.5000   -1.5824673   -1.5834854    1.5828465   1
    0  194.9779902  126.6088470  161.7774719  -0.5000  -0.5000   0.5000   -1.5824673   -1.5834854    1.5828465   1
    0  196.4707926  126.9328542  162.7275117  -0.5000  -0.5000   0.5000   -1.5824673   -1.5834854    1.5828465   1
    0  198.0039942  125.7021386  163.0151049  -0.5000  -0.5000   0.5000   -1.5824673   -1.5834854    1.5828465   1
    0  199.4395770  123.7637006  163.2589707  -0.5000  -0.5000   0.5000   -1.5824673   -1.5834854    1.5828465   1
    0  200.8548952  122.0055262  164.0104500  -0.5000  -0.5000   0.5000   -1.5824673   -1.5834854    1.5828465   1
    0  201.6188781  119.8962671  164.3180230  -0.5000  -0.5000   0.5000   -1.5824673   -1.5834854    1.5828465   1
    0  201.6911036  118.2479649  163.0045318  -0.5000  -0.5000   0.5000   -1.5824673   -1.5834854    1.5828465   1
    0  201.2286342  117.5886725  160.6633927  -0.5000  -0.5000   0.5000   -1.5824673   -1.5834854    1.5828465   1
    0  200.3964256  117.0185905  158.6681335  -0.5000  -0.5000   0.5000   -1.5824673   -1.5834854    1.5828465   1
    0  199.5725297  116.1445467  157.6732132  -0.5000  -0.5000   0.5000   -1.5824673   -1.5834854    1.5828465   1
    0  198.5885082  114.7668750  156.9861297  -0.5000  -0.5000   0.5000   -1.5824673   -1.5834854    1.5828465   1
    1  139.6806000  501.4474750  242.5529000   0.5000   0.5000  -0.5000    1.5824673    1.5834854   -1.5828465   0
    1  138.5611688  502.7721881  245.4471033   0.5000   0.5000  -0.5000    1.5824673    1.5834854   -1.5828465   0
    1  137.6301445  504.6015796  247.1126031   0.5000   0.5000  -0.5000    1.5824673    1.5834854   -1.5828465   0
    1  136.8374794  506.8663070  247.8384200   0.5000   0.5000  -0.5000    1.5824673    1.5834854   -1.5828465   0
    1  135.7792189  508.4640006  248.4563265   0.5000   0.5000  -0.5000    1.5824673    1.5834854   -1.5828465   0
    1  134.2315172  509.7091984  248.6101298   0.5000   0.5000  -0.5000    1.5824673    1.5834854   -1.5828465   0
    1  132.8694375  510.7020094  247.5309010   0.5000   0.5000  -0.5000    1.5824673    1.5834854   -1.5828465   0
    1  132.2041366  510.5550806  245.4366034   0.5000   0.5000  -0.5000    1.5824673    1.5834854   -1.5828465   0
    1  131.5604330  509.8260861  243.3859366   0.5000   0.5000  -0.5000    1.5824673    1.5834854   -1.5828465   0
    1  130.6544153  509.0379474  241.7729271   0.5000   0.5000  -0.5000    1.5824673    1.5834854   -1.5828465   0
    1  129.4650869  507.8535684  240.7626124   0.5000   0.5000  -0.5000    1.5824673    1.5834854   -1.5828465   0
    1  128.8830241  506.7385402  240.3484997   0.5000   0.5000  -0.5000    1.5824673    1.5834854   -1.5828465   0
    1  129.8227627  506.0596217  239.3762241   0.5000   0.5000  -0.5000    1.5824673    1.5834854   -1.5828465   0
    1  131.1219006  504.9270561  238.1333728   0.5000   0.5000  -0.5000    1.5824673    1.5834854   -1.5828465   0
    1  132.6602275  503.1539571  237.7384740   0.5000   0.5000  -0.5000    1.5824673    1.5834854   -1.5828465   0
    1  134.4425376  501.7632314  238.1395178   0.5000   0.5000  -0.5000    1.5824673    1.5834854   -1.5828465   0
    1  135.7880320  500.8059238  239.0901029   0.5000   0.5000  -0.5000    1.5824673    1.5834854   -1.5828465   0
    1  137.1608685  500.3869151  239.7021700   0.5000   0.5000  -0.5000    1.5824673    1.5834854   -1.5828465   0
    1  138.5444244  500.9199625  240.4156302   0.5000   0.5000  -0.5000    1.5824673    1.5834854   -1.5828465   0
    1  139.6806000  501.4474750  242.5529000   0.5000   0.5000  -0.5000    1.5824673    1.5834854   -1.5828465   0
    2   80.0455786  600.5702857  393.8928572   0.5000   0.5000  -0.5000    1.5824673    1.5834854   -1.5828465   0
    2   77.6025440  600.2342901  393.3543692   0.5000   0.5000  -0.5000    1.5824673    1.5834854   -1.5828465   0
    2   75.8808531  599.6219407  392.7144025   0.5000   0.5000  -0.5000    1.5824673    1.5834854   -1.5828465   0
    2   74.5839754  598.8735837  391.2807898   0.5000   0.5000  -0.5000    1.5824673    1.5834854   -1.5828465   0
    2   73.6976578  598.1877696  389.8807005   0.5000   0.5000  -0.5000    1.5824673    1.5834854   -1.5828465   0
    2   73.5715923  597.4039682  388.3824708   0.5000   0.5000  -0.5000    1.5824673    1.5834854   -1.5828465   0
    2   73.2220833  596.7919237  385.9116154   0.5000   0.5000  -0.5000    1.5824673    1.5834854   -1.5828465   0
    2   72.3697334  596.1098622  383.7092870   0.5000   0.5000  -0.5000    1.5824673    1.5834854   -1.5828465   0
    2   71.8011430  594.9467059  382.0590755   0.5000   0.5000  -0.5000    1.5824673    1.5834854   -1.5828465   0
    2   72.1678405  593.9569875  379.9638281   0.5000   0.5000  -0.5000    1.5824673    1.5834854   -1.5828465   0
    2   73.4900289  593.3209976  378.0944241   0.5000   0.5000  -0.5000    1.5824673    1.5834854   -1.5828465   0
    2   74.9323734  592.4452465  376.5872026   0.5000   0.5000  -0.5000    1.5824673    1.5834854   -1.5828465   0
    2   76.1018121  591.6967675  374.7920172   0.5000   0.5000  -0.5000    1.5824673    1.5834854   -1.5828465   0
    2   76.2621263  591.6898938  372.7221392   0.5000   0.5000  -0.5000    1.5824673    1.5834854   -1.5828465   0
    2   75.9376281  591.6395214  371.5836112   0.5000   0.5000  -0.5000    1.5824673    1.5834854   -1.5828465   0
    2   76.8557376  590.6521979  372.6599843   0.5000   0.5000  -0.5000    1.5824673    1.5834854   -1.5828465   0
    2   78.4600737  589.4241513  373.7883460   0.5000   0.5000  -0.5000    1.5824673    1.5834854   -1.5828465   0
    2   80.4377797  588.4889474  373.5227636   0.5000   0.5000  -0.5000    1.5824673    1.5834854   -1.5828465   0
    2   82.5571258  587.2353212  373.0329144   0.5000   0.5000  -0.5000    1.5824673    1.5834854   -1.5828465   0
    2   84.0540062  585.8508640  372.0277757   0.5000   0.5000  -0.5000    1.5824673    1.5834854   -1.5828465   0
    2   85.3461318  585.2616629  370.2765730   0.5000   0.5000  -0.5000    1.5824673    1.5834854   -1.5828465   0
    2   86.7685171  585.4633167  369.0532164   0.5000   0.5000  -0.5000    1.5824673    1.5834854   -1.5828465   0
    2   88.3952287  585.4182742  369.6748598   0.5000   0.5000  -0.5000    1.5824673    1.5834854   -1.5828465   0
    2   89.9287326  584.9319457  371.3534114   0.5000   0.5000  -0.5000    1.5824673    1.5834854   -1.5828465   0
    2   91.6751407  584.4710743  372.3701436   0.5000   0.5000  -0.5000    1.5824673    1.5834854   -1.5828465   0
    2   93.9568167  584.0100608  372.8534871   0.5000   0.5000  -0.5000    1.5824673    1.5834854   -1.5828465   0
    2   95.3615825  583.0531117  373.3160984   0.5000   0.5000  -0.5000    1.5824673    1.5834854   -1.5828465   0
    2   96.1040191  581.8030881  373.5247879   0.5000   0.5000  -0.5000    1.5824673    1.5834854   -1.5828465   0
    2   98.1136924  581.2388147  373.6711856   0.5000   0.5000  -0.5000    1.5824673    1.5834854   -1.5828465   0
    2  100.7160494  581.3037895  374.6315654   0.5000   0.5000  -0.5000    1.5824673    1.5834854   -1.5828465   0
    2  102.0942507  582.0741081  376.2927144   0.5000   0.5000  -0.5000    1.5824673    1.5834854   -1.5828465   0
    2  102.3632250  583.6413420  377.7593807   0.5000   0.5000  -0.5000    1.5824673    1.5834854   -1.5828465   0
    2  102.3900016  585.2357701  379.3130916   0.5000   0.5000  -0.5000    1.5824673    1.5834854   -1.5828465   0
    2  101.7581688  586.5295687  380.6394626   0.5000   0.5000  -0.5000    1.5824673    1.5834854   -1.5828465   0
    2  100.4630479  587.9199556  381.2424261   0.5000   0.5000  -0.5000    1.5824673    1.5834854   -1.5828465   0
    2  100.3022191  589.4927151  381.4399072   0.5000   0.5000  -0.5000    1.5824673    1.5834854   -1.5828465   0
    2  101.7672557  590.2459890  381.1757356   0.5000   0.5000  -0.5000    1.5824673    1.5834854   -1.5828465   0
    2  102.8467929  589.8254686  381.7514654   0.5000   0.5000  -0.5000    1.5824673    1.5834854   -1.5828465   0
    2  102.6312767  589.1902339  384.0528460   0.5000   0.5000  -0.5000    1.5824673    1.5834854   -1.5828465   0
    2  102.3044360  589.7334945  386.1084631   0.5000   0.5000  -0.5000    1.5824673    1.5834854   -1.5828465   0
    2  102.4348780  592.1113591  387.0154769   0.5000   0.5000  -0.5000    1.5824673    1.5834854   -1.5828465   0
    2  103.3852838  594.8631690  387.7464148   0.5000   0.5000  -0.5000    1.5824673    1.5834854   -1.5828465   0
    2  104.3405249  595.9881553  388.6896978   0.5000   0.5000  -0.5000    1.5824673    1.5834854   -1.5828465   0
    2  103.9487254  595.7729793  390.4638531   0.5000   0.5000  -0.5000    1.5824673    1.5834854   -1.5828465   0
    2  103.3414697  595.6335660  393.6484200   0.5000   0.5000  -0.5000    1.5824673    1.5834854   -1.5828465   0
    2  102.9302289  595.7951011  397.1909941   0.5000   0.5000  -0.5000    1.5824673    1.5834854   -1.5828465   0
    2  102.1980220  596.4547627  399.4588835   0.5000   0.5000  -0.5000    1.5824673    1.5834854   -1.5828465   0
    2  101.6271126  597.9453839  400.6303086   0.5000   0.5000  -0.5000    1.5824673    1.5834854   -1.5828465   0
    2  101.4325383  599.6450655  401.9151102   0.5000   0.5000  -0.5000    1.5824673    1.5834854   -1.5828465   0
    2  101.1518731  600.9041500  403.5856826   0.5000   0.5000  -0.5000    1.5824673    1.5834854   -1.5828465   0
    2  100.5921154  601.9010364  405.4335315   0.5000   0.5000  -0.5000    1.5824673    1.5834854   -1.5828465   0
    2  100.1913475  603.1313868  407.4762559   0.5000   0.5000  -0.5000    1.5824673    1.5834854   -1.5828465   0
    2   99.4361642  604.6343190  409.0219762   0.5000   0.5000  -0.5000    1.5824673    1.5834854   -1.5828465   0
    2   98.4895581  605.8009016  410.2230532   0.5000   0.5000  -0.5000    1.5824673    1.5834854   -1.5828465   0
    2   97.8241770  606.3771007  411.9447096   0.5000   0.5000  -0.5000    1.5824673    1.5834854   -1.5828465   0
    2   97.1368809  607.0400777  413.6655098   0.5000   0.5000  -0.5000    1.5824673    1.5834854   -1.5828465   0
    2   96.9377348  608.4523323  414.7090667   0.5000   0.5000  -0.5000    1.5824673    1.5834854   -1.5828465   0
    2   96.8264705  611.1975727  416.6383266   0.5000   0.5000  -0.5000    1.5824673    1.5834854   -1.5828465   0
    2   96.3073828  615.6998928  421.7484170   0.5000   0.5000  -0.5000    1.5824673    1.5834854   -1.5828465   0
    3  281.2915556  708.2125483  493.0677777   1.0000  -0.0000  -0.0000    3.1641948   -0.0013610   -0.0013510   0
    3  282.8508551  706.5487644  493.2797455   1.0000  -0.0000  -0.0000    3.1641948   -0.0013610   -0.0013510   0
    3  284.1847845  704.7760040  493.8817834   1.0000  -0.0000  -0.0000    3.1641948   -0.0013610   -0.0013510   0
    3  285.2449951  703.2973096  494.9177769   1.0000  -0.0000  -0.0000    3.1641948   -0.0013610   -0.0013510   0
    3  286.4366932  702.1117482  496.0461273   1.0000  -0.0000  -0.0000    3.1641948   -0.0013610   -0.0013510   0
    3  288.1089692  701.0451545  496.7938611   1.0000  -0.0000  -0.0000    3.1641948   -0.0013610   -0.0013510   0
    3  289.6771428  699.8481117  496.8316903   1.0000  -0.0000  -0.0000    3.1641948   -0.0013610   -0.0013510   0
    3  290.4699121  698.0285184  496.8398252   1.0000  -0.0000  -0.0000    3.1641948   -0.0013610   -0.0013510   0
    3  291.3175953  696.0857725  497.0555178   1.0000  -0.0000  -0.0000    3.1641948   -0.0013610   -0.0013510   0
    3  292.6518505  694.5643478  496.9488130   1.0000  -0.0000  -0.0000    3.1641948   -0.0013610   -0.0013510   0
    3  294.2876273  693.4088982  497.1187605   1.0000  -0.0000  -0.0000    3.1641948   -0.0013610   -0.0013510   0
    3  295.8654775  692.3525376  497.8916126   1.0000  -0.0000  -0.0000    3.1641948   -0.0013610   -0.0013510   0
    3  296.6280334  691.1600970  498.3713800   1.0000  -0.0000  -0.0000    3.1641948   -0.0013610   -0.0013510   0
    3  297.3632275  690.4705548  497.6746381   1.0000  -0.0000  -0.0000    3.1641948   -0.0013610   -0.0013510   0
    3  298.6630175  690.2711215  495.9237845   1.0000  -0.0000  -0.0000    3.1641948   -0.0013610   -0.0013510   0
    3  299.9112761  689.4747052  494.3124465   1.0000  -0.0000  -0.0000    3.1641948   -0.0013610   -0.0013510   0
    3  301.2020275  688.4395116  492.8811991   1.0000  -0.0000  -0.0000    3.1641948   -0.0013610   -0.0013510   0
    3  302.6234473  688.4693928  490.8252200   1.0000  -0.0000  -0.0000    3.1641948   -0.0013610   -0.0013510   0
    3  304.0691869  688.8189719  488.9937055   1.0000  -0.0000  -0.0000    3.1641948   -0.0013610   -0.0013510   0
    3  305.5308169  688.5340392  487.8073389   1.0000  -0.0000  -0.0000    3.1641948   -0.0013610   -0.0013510   0
    3  306.8094992  688.1497223  486.4122761   1.0000  -0.0000  -0.0000    3.1641948   -0.0013610   -0.0013510   0
    3  308.1756279  687.5471245  484.7128717   1.0000  -0.0000  -0.0000    3.1641948   -0.0013610   -0.0013510   0
    3  309.8561449  687.0870948  483.2339165   1.0000  -0.0000  -0.0000    3.1641948   -0.0013610   -0.0013510   0
    3  311.2669511  687.8599740  482.1676671   1.0000  -0.0000  -0.0000    3.1641948   -0.0013610   -0.0013510   0
    3  312.2626987  688.6552744  480.7989206   1.0000  -0.0000  -0.0000    3.1641948   -0.0013610   -0.0013510   0
    3  313.6298555  688.1423689  479.0741359   1.0000  -0.0000  -0.0000    3.1641948   -0.0013610   -0.0013510   0
    3  315.4743877  688.0161516  477.8285185   1.0000  -0.0000  -0.0000    3.1641948   -0.0013610   -0.0013510   0
    3  316.8684702  688.9634161  476.7488523   1.0000  -0.0000  -0.0000    3.1641948   -0.0013610   -0.0013510   0
    3  317.8702579  689.4472937  475.3150519   1.0000  -0.0000  -0.0000    3.1641948   -0.0013610   -0.0013510   0
    3  319.3003773  689.4993608  473.8917211   1.0000  -0.0000  -0.0000    3.1641948   -0.0013610   -0.0013510   0
    3  320.8711665  689.9980058  472.4142630   1.0000  -0.0000  -0.0000    3.1641948   -0.0013610   -0.0013510   0
    3  322.6804980  690.0086687  470.8906810   1.0000  -0.0000  -0.0000    3.1641948   -0.0013610   -0.0013510   0
    3  324.8906406  688.9601912  470.0779096   1.0000  -0.0000  -0.0000    3.1641948   -0.0013610   -0.0013510   0
    3  326.3514734  688.4354924  469.5269619   1.0000  -0.0000  -0.0000    3.1641948   -0.0013610   -0.0013510   0
    3  327.1176429  689.0887559  468.5335654   1.0000  -0.0000  -0.0000    3.1641948   -0.0013610   -0.0013510   0
    4  536.4715001  177.2565714  350.9598572   0.5000   0.5000   0.5000    1.5816578    1.5794393    1.5813977   0
    4  538.6685728  176.2495674  351.2390957   0.5000   0.5000   0.5000    1.5816578    1.5794393    1.5813977   0
    4  540.8277975  174.7819530  351.4231622   0.5000   0.5000   0.5000    1.5816578    1.5794393    1.5813977   0
    4  542.5528938  173.4058900  350.6855274   0.5000   0.5000   0.5000    1.5816578    1.5794393    1.5813977   0
    4  543.9291957  171.8458830  350.4010813   0.5000   0.5000   0.5000    1.5816578    1.5794393    1.5813977   0
    4  545.1758567  169.9108575  351.6448689   0.5000   0.5000   0.5000    1.5816578    1.5794393    1.5813977   0
    4  545.6737024  168.2650782  353.6526625   0.5000   0.5000   0.5000    1.5816578    1.5794393    1.5813977   0
    4  545.2795577  166.9857707  355.2594171   0.5000   0.5000   0.5000    1.5816578    1.5794393    1.5813977   0
    4  544.4582483  165.8867096  356.6928190   0.5000   0.5000   0.5000    1.5816578    1.5794393    1.5813977   0
    4  542.6445150  165.5986460  358.4191090   0.5000   0.5000   0.5000    1.5816578    1.5794393    1.5813977   0
    4  539.6905790  165.8994797  359.5576826   0.5000   0.5000   0.5000    1.5816578    1.5794393    1.5813977   0
    4  537.4299845  166.9272829  359.9865042   0.5000   0.5000   0.5000    1.5816578    1.5794393    1.5813977   0
    4  536.8129453  169.1205645  359.8983582   0.5000   0.5000   0.5000    1.5816578    1.5794393    1.5813977   0
    4  537.0388028  170.8054151  358.5995490   0.5000   0.5000   0.5000    1.5816578    1.5794393    1.5813977   0
    4  537.4428000  171.6077789  356.1928990   0.5000   0.5000   0.5000    1.5816578    1.5794393    1.5813977   0
    4  537.6193325  172.9148819  354.1804509   0.5000   0.5000   0.5000    1.5816578    1.5794393    1.5813977   0
    4  537.3404417  174.4724715  353.4455448   0.5000   0.5000   0.5000    1.5816578    1.5794393    1.5813977   0
    4  536.5812539  175.4279005  353.8353832   0.5000   0.5000   0.5000    1.5816578    1.5794393    1.5813977   0
    4  535.5732142  175.9701428  355.0675714   0.5000   0.5000   0.5000    1.5816578    1.5794393    1.5813977   0
    5  487.7220225  191.0714281   90.6793312  -0.5000  -0.5000  -0.5000   -1.5816578   -1.5794393   -1.5813977   1
    5  488.5204251  189.4565567   91.1755530  -0.5000  -0.5000  -0.5000   -1.5816578   -1.5794393   -1.5813977   1
    5  490.1657919  188.1969426   91.2959774  -0.5000  -0.5000  -0.5000   -1.5816578   -1.5794393   -1.5813977   1
    5  492.3644743  187.6705077   90.5984562  -0.5000  -0.5000  -0.5000   -1.5816578   -1.5794393   -1.5813977   1
    5  494.6460916  187.1216355   89.8001120  -0.5000  -0.5000  -0.5000   -1.5816578   -1.5794393   -1.5813977   1
    5  495.7360033  187.2420062   88.3451097  -0.5000  -0.5000  -0.5000   -1.5816578   -1.5794393   -1.5813977   1
    5  495.9125670  188.6855102   86.3118275  -0.5000  -0.5000  -0.5000   -1.5816578   -1.5794393   -1.5813977   1
    5  496.0534154  190.4932182   84.2171786  -0.5000  -0.5000  -0.5000   -1.5816578   -1.5794393   -1.5813977   1
    5  495.5806118  191.9576583   82.2318870  -0.5000  -0.5000  -0.5000   -1.5816578   -1.5794393   -1.5813977   1
    5  493.6693358  193.0220217   81.1011767  -0.5000  -0.5000  -0.5000   -1.5816578   -1.5794393   -1.5813977   1
    5  491.5836741  194.0578048   80.5657933  -0.5000  -0.5000  -0.5000   -1.5816578   -1.5794393   -1.5813977   1
    5  490.0501229  195.3992396   80.2854849  -0.5000  -0.5000  -0.5000   -1.5816578   -1.5794393   -1.5813977   1
    5  488.2663992  196.2053571   81.2631779  -0.5000  -0.5000  -0.5000   -1.5816578   -1.5794393   -1.5813977   1
    5  486.4104044  196.3146441   83.0913383  -0.5000  -0.5000  -0.5000   -1.5816578   -1.5794393   -1.5813977   1
    5  484.8488435  196.5573960   84.9569624  -0.5000  -0.5000  -0.5000   -1.5816578   -1.5794393   -1.5813977   1
    5  484.0148137  196.2157015   87.2351406  -0.5000  -0.5000  -0.5000   -1.5816578   -1.5794393   -1.5813977   1
    5  484.1003301  194.1303872   88.7209243  -0.5000  -0.5000  -0.5000   -1.5816578   -1.5794393   -1.5813977   1
    5  485.0484088  191.9512621   89.1509363  -0.5000  -0.5000  -0.5000   -1.5816578   -1.5794393   -1.5813977   1
    5  486.2522625  191.4037229   89.6724306  -0.5000  -0.5000  -0.5000   -1.5816578   -1.5794393   -1.5813977   1
    5  487.7220225  191.0714281   90.6793312  -0.5000  -0.5000  -0.5000   -1.5816578   -1.5794393   -1.5813977   1
    6  654.9285372  192.3331226  163.4849775   0.5000   0.5000   0.5000    1.5816578    1.5794393    1.5813977   0
    6  657.0735220  195.1703683  160.9678452   0.5000   0.5000   0.5000    1.5816578    1.5794393    1.5813977   0
    6  658.0938777  194.9131654  159.1284068   0.5000   0.5000   0.5000    1.5816578    1.5794393    1.5813977   0
    6  659.1709285  193.1033834  158.4454996   0.5000   0.5000   0.5000    1.5816578    1.5794393    1.5813977   0
    6  661.0983454  191.9064394  158.0527992   0.5000   0.5000   0.5000    1.5816578    1.5794393    1.5813977   0
    6  663.1856107  190.4940878  157.8681458   0.5000   0.5000   0.5000    1.5816578    1.5794393    1.5813977   0
    6  664.1486172  188.2859548  157.8323255   0.5000   0.5000   0.5000    1.5816578    1.5794393    1.5813977   0
    6  664.3415560  186.3850138  157.9114774   0.5000   0.5000   0.5000    1.5816578    1.5794393    1.5813977   0
    6  664.4413876  184.6468962  158.7532471   0.5000   0.5000   0.5000    1.5816578    1.5794393    1.5813977   0
    6  664.4702900  182.8152278  159.8779769   0.5000   0.5000   0.5000    1.5816578    1.5794393    1.5813977   0
    6  664.3616730  181.1496823  160.3569324   0.5000   0.5000   0.5000    1.5816578    1.5794393    1.5813977   0
    6  663.6799696  179.8258779  159.9779992   0.5000   0.5000   0.5000    1.5816578    1.5794393    1.5813977   0
    6  663.0760519  180.1267328  160.0579399   0.5000   0.5000   0.5000    1.5816578    1.5794393    1.5813977   0
    6  662.3777641  181.6893101  161.2740166   0.5000   0.5000   0.5000    1.5816578    1.5794393    1.5813977   0
    6  660.7895755  182.9248580  162.6467740   0.5000   0.5000   0.5000    1.5816578    1.5794393    1.5813977   0
    6  658.8242898  184.2340778  163.5916710   0.5000   0.5000   0.5000    1.5816578    1.5794393    1.5813977   0
    6  656.8880486  185.9442094  164.3860795   0.5000   0.5000   0.5000    1.5816578    1.5794393    1.5813977   0
    6  654.8081904  187.1070772  165.0389727   0.5000   0.5000   0.5000    1.5816578    1.5794393    1.5813977   0
    6  653.6816496  188.7087924  164.6633186   0.5000   0.5000   0.5000    1.5816578    1.5794393    1.5813977   0
    6  654.9285372  192.3331226  163.4849775   0.5000   0.5000   0.5000    1.5816578    1.5794393    1.5813977   0
    7  615.8820223  245.4862096  589.3514404   0.5000   0.5000   0.5000    1.5816578    1.5794393    1.5813977   0
    7  615.9518598  248.3187561  588.5380165   0.5000   0.5000   0.5000    1.5816578    1.5794393    1.5813977   0
    7  615.6155143  250.2721720  587.5244740   0.5000   0.5000   0.5000    1.5816578    1.5794393    1.5813977   0
    7  614.9488779  251.3528288  586.4764227   0.5000   0.5000   0.5000    1.5816578    1.5794393    1.5813977   0
    7  614.1262374  253.0710741  585.8641364   0.5000   0.5000   0.5000    1.5816578    1.5794393    1.5813977   0
    7  613.4424215  255.7661427  585.4322853   0.5000   0.5000   0.5000    1.5816578    1.5794393    1.5813977   0
    7  614.0518125  257.9201487  584.7931248   0.5000   0.5000   0.5000    1.5816578    1.5794393    1.5813977   0
    7  615.3899617  259.0355122  584.0474084   0.5000   0.5000   0.5000    1.5816578    1.5794393    1.5813977   0
    7  616.6765735  259.0194336  583.4900662   0.5000   0.5000   0.5000    1.5816578    1.5794393    1.5813977   0
    7  619.0617262  256.7990774  583.0006191   0.5000   0.5000   0.5000    1.5816578    1.5794393    1.5813977   0
    8  412.3954546  213.8515682  519.9517273  -0.5000  -0.5000   0.5000   -1.5824673   -1.5834854    1.5828465   0
    8  412.3629817  217.1111735  522.5720863  -0.5000  -0.5000   0.5000   -1.5824673   -1.5834854    1.5828465   0
    8  412.1660004  219.3065722  524.0709036  -0.5000  -0.5000   0.5000   -1.5824673   -1.5834854    1.5828465   0
    8  411.4309265  221.3560507  525.4007720  -0.5000  -0.5000   0.5000   -1.5824673   -1.5834854    1.5828465   0
    8  410.1743065  223.2164378  525.8576537  -0.5000  -0.5000   0.5000   -1.5824673   -1.5834854    1.5828465   0
    8  408.5470069  224.5083330  525.3831696  -0.5000  -0.5000   0.5000   -1.5824673   -1.5834854    1.5828465   0
    8  406.7672954  226.0380162  525.1898013  -0.5000  -0.5000   0.5000   -1.5824673   -1.5834854    1.5828465   0
    8  405.2644270  227.9869001  524.9953165  -0.5000  -0.5000   0.5000   -1.5824673   -1.5834854    1.5828465   0
    8  403.8880489  229.7645807  524.2715209  -0.5000  -0.5000   0.5000   -1.5824673   -1.5834854    1.5828465   0
    8  402.7779404  231.2909370  523.2221172  -0.5000  -0.5000   0.5000   -1.5824673   -1.5834854    1.5828465   0
    8  401.7232327  232.0761574  521.8937751  -0.5000  -0.5000   0.5000   -1.5824673   -1.5834854    1.5828465   0
    8  400.1151960  231.8376074  520.6074258  -0.5000  -0.5000   0.5000   -1.5824673   -1.5834854    1.5828465   0
    8  398.7923218  230.4551632  519.8751149  -0.5000  -0.5000   0.5000   -1.5824673   -1.5834854    1.5828465   0
    8  398.7850184  227.7336209  519.1960695  -0.5000  -0.5000   0.5000   -1.5824673   -1.5834854    1.5828465   0
    8  398.9921657  224.9975329  518.6683635  -0.5000  -0.5000   0.5000   -1.5824673   -1.5834854    1.5828465   0
    8  398.9188036  223.5459553  519.1663808  -0.5000  -0.5000   0.5000   -1.5824673   -1.5834854    1.5828465   0
    8  400.0263810  222.7026757  520.1652097  -0.5000  -0.5000   0.5000   -1.5824673   -1.5834854    1.5828465   0
    8  401.8143125  221.0788107  521.0806879  -0.5000  -0.5000   0.5000   -1.5824673   -1.5834854    1.5828465   0
    8  403.1738785  219.2588757  521.5990172  -0.5000  -0.5000   0.5000   -1.5824673   -1.5834854    1.5828465   0
    8  404.7192594  218.5419422  521.2758082  -0.5000  -0.5000   0.5000   -1.5824673   -1.5834854    1.5828465   0
    8  407.0803803  218.3970810  520.8000719  -0.5000  -0.5000   0.5000   -1.5824673   -1.5834854    1.5828465   0
    8  409.7126177  218.4243762  520.7827316  -0.5000  -0.5000   0.5000   -1.5824673   -1.5834854    1.5828465   0
    8  411.4948426  217.5189199  520.6577548  -0.5000  -0.5000   0.5000   -1.5824673   -1.5834854    1.5828465   0
    8  412.3954546  213.8515682  519.9517273  -0.5000  -0.5000   0.5000   -1.5824673   -1.5834854    1.5828465   0
    9  578.2625584  331.4350375  571.6703792   0.5000   0.5000   0.5000    1.5816578    1.5794393    1.5813977   0
    9  584.1642299  329.1957288  570.5355683   0.5000   0.5000   0.5000    1.5816578    1.5794393    1.5813977   0
    9  584.7593989  327.0769850  570.1064075   0.5000   0.5000   0.5000    1.5816578    1.5794393    1.5813977   0
    9  583.3931413  324.3736353  570.0415247   0.5000   0.5000   0.5000    1.5816578    1.5794393    1.5813977   0
    9  583.6641755  321.7220413  569.6486945   0.5000   0.5000   0.5000    1.5816578    1.5794393    1.5813977   0
    9  585.3502578  320.6099857  568.9883906   0.5000   0.5000   0.5000    1.5816578    1.5794393    1.5813977   0
    9  586.3070371  319.9510954  568.7394849   0.5000   0.5000   0.5000    1.5816578    1.5794393    1.5813977   0
    9  585.7331471  317.9401595  569.1290451   0.5000   0.5000   0.5000    1.5816578    1.5794393    1.5813977   0
    9  585.2452327  315.1489943  569.7904748   0.5000   0.5000   0.5000    1.5816578    1.5794393    1.5813977   0
    9  585.0803367  312.6097351  570.1967197   0.5000   0.5000   0.5000    1.5816578    1.5794393    1.5813977   0
    9  584.6322786  310.3863190  570.4117748   0.5000   0.5000   0.5000    1.5816578    1.5794393    1.5813977   0
    9  583.9212004  309.7404663  570.4695063   0.5000   0.5000   0.5000    1.5816578    1.5794393    1.5813977   0
    9  583.5586835  311.2247583  570.9902404   0.5000   0.5000   0.5000    1.5816578    1.5794393    1.5813977   0
    9  583.4583082  312.6959893  572.8408118   0.5000   0.5000   0.5000    1.5816578    1.5794393    1.5813977   0
    9  582.3284887  313.8029698  574.5370859   0.5000   0.5000   0.5000    1.5816578    1.5794393    1.5813977   0
    9  580.2047699  315.0006635  575.4551772   0.5000   0.5000   0.5000    1.5816578    1.5794393    1.5813977   0
    9  577.9846964  316.0210326  576.0170421   0.5000   0.5000   0.5000    1.5816578    1.5794393    1.5813977   0
    9  576.2854400  317.4083867  576.0647979   0.5000   0.5000   0.5000    1.5816578    1.5794393    1.5813977   0
    9  575.2054935  318.9057156  575.6263814   0.5000   0.5000   0.5000    1.5816578    1.5794393    1.5813977   0
    9  574.5240973  320.1499589  574.6387195   0.5000   0.5000   0.5000    1.5816578    1.5794393    1.5813977   0
    9  574.1400125  321.8098758  573.4835647   0.5000   0.5000   0.5000    1.5816578    1.5794393    1.5813977   0
    9  573.9204163  324.1287506  572.7871794   0.5000   0.5000   0.5000    1.5816578    1.5794393    1.5813977   0
    9  574.6701052  325.9533896  572.8145960   0.5000   0.5000   0.5000    1.5816578    1.5794393    1.5813977   0
    9  576.6826425  326.4962124  572.8380976   0.5000   0.5000   0.5000    1.5816578    1.5794393    1.5813977   0
    9  578.7176494  326.6035094  572.1360416   0.5000   0.5000   0.5000    1.5816578    1.5794393    1.5813977   0
    9  580.3117545  327.3491935  571.2751503   0.5000   0.5000   0.5000    1.5816578    1.5794393    1.5813977   0
    9  581.7910354  328.5592188  571.0544462   0.5000   0.5000   0.5000    1.5816578    1.5794393    1.5813977   0
    9  581.6803974  329.7393257  571.3480427   0.5000   0.5000   0.5000    1.5816578    1.5794393    1.5813977   0
    9  578.2625584  331.4350375  571.6703792   0.5000   0.5000   0.5000    1.5816578    1.5794393    1.5813977   0
   10  489.4200541  379.9127748  659.7055640   0.5000   0.5000   0.5000    1.5816578    1.5794393    1.5813977   0
   10  490.8514445  381.0038231  657.0061888   0.5000   0.5000   0.5000    1.5816578    1.5794393    1.5813977   0
   10  491.6911588  382.5193904  655.4351127   0.5000   0.5000   0.5000    1.5816578    1.5794393    1.5813977   0