ITEM: TIMESTEP
0
ITEM: NUMBER OF ATOMS
12443
ITEM: BOX BOUNDS pp pp pp 
0.0 696.547350
0.0 696.607807
0.0 697.111140
ITEM: ATOMS id x y z tbx tby tbz sbx sby sbz loop
    0  564.0057331  256.5241182  178.6790662  -0.5000   0.5000   0.5000   -1.5820749    1.5810950    1.5820816   0
    0  564.9370386  254.2028160  176.1132632  -0.5000   0.5000   0.5000   -1.5820749    1.5810950    1.5820816   0
    0  566.5979723  252.2290711  174.2396583  -0.5000   0.5000   0.5000   -1.5820749    1.5810950    1.5820816   0
    0  568.4037237  250.7249563  173.7026486  -0.5000   0.5000   0.5000   -1.5820749    1.5810950    1.5820816   0
    0  569.6276491  249.0997447  173.4882797  -0.5000   0.5000   0.5000   -1.5820749    1.5810950    1.5820816   0
    0  571.0170257  247.3994783  172.3845920  -0.5000   0.5000   0.5000   -1.5820749    1.5810950    1.5820816   0
    0  572.8668831  245.8996928  170.9851793  -0.5000   0.5000   0.5000   -1.5820749    1.5810950    1.5820816   0
    0  574.8741726  244.6879621  170.1188299  -0.5000   0.5000   0.5000   -1.5820749    1.5810950    1.5820816   0
    0  577.0801599  243.8620367  169.3747202  -0.5000   0.5000   0.5000   -1.5820749    1.5810950    1.5820816   0
    0  579.3414197  243.1842911  168.3789042  -0.5000   0.5000   0.5000   -1.5820749    1.5810950    1.5820816   0
    0  581.6314986  242.3798743  167.5272811  -0.5000   0.5000   0.5000   -1.5820749    1.5810950    1.5820816   0
    0  583.9782923  241.5572454  166.8211483  -0.5000   0.5000   0.5000   -1.5820749    1.5810950    1.5820816   0
    0  586.2877022  240.7193948  165.9715404  -0.5000   0.5000   0.5000   -1.5820749    1.5810950    1.5820816   0
    0  588.6404517  239.8040782  165.1879922  -0.5000   0.5000   0.5000   -1.5820749    1.5810950    1.5820816   0
    0  590.7682253  239.1412384  164.4947503  -0.5000   0.5000   0.5000   -1.5820749    1.5810950    1.5820816   0
    0  592.2715489  238.5690235  163.4702025  -0.5000   0.5000   0.5000   -1.5820749    1.5810950    1.5820816   0
    0  593.4013333  237.5316834  161.8326500  -0.5000   0.5000   0.5000   -1.5820749    1.5810950    1.5820816   0
    1  128.7741905  304.4892143  775.8833919   1.0000  -0.0000  -0.0000    3.1644354   -0.0002742    0.0000665   0
    1  126.2917915  304.4043349  773.5896856   1.0000  -0.0000  -0.0000    3.1644354   -0.0002742    0.0000665   0
    1  124.7814608  304.1487128  771.8936984   1.0000  -0.0000  -0.0000    3.1644354   -0.0002742    0.0000665   0
    1  123.4006414  303.5402336  770.5481901   1.0000  -0.0000  -0.0000    3.1644354   -0.0002742    0.0000665   0
    1  121.3821097  302.6393435  769.4578501   1.0000  -0.0000  -0.0000    3.1644354   -0.0002742    0.0000665   0
    1  119.4543456  301.7166638  768.2964424   1.0000  -0.0000  -0.0000    3.1644354   -0.0002742    0.0000665   0
    1  118.6246578  301.3442772  766.1880789   1.0000  -0.0000  -0.0000    3.1644354   -0.0002742    0.0000665   0
    1  118.3256336  301.1947070  763.4821777   1.0000  -0.0000  -0.0000    3.1644354   -0.0002742    0.0000665   0
    1  117.2939905  301.0730710  761.4662409   1.0000  -0.0000  -0.0000    3.1644354   -0.0002742    0.0000665   0
    1  115.9634938  301.2158419  759.6515768   1.0000  -0.0000  -0.0000    3.1644354   -0.0002742    0.0000665   0
    1  115.2226766  301.0973785  757.3985980   1.0000  -0.0000  -0.0000    3.1644354   -0.0002742    0.0000665   0
    1  114.7163198  300.5645280  755.5841924   1.0000  -0.0000  -0.0000    3.1644354   -0.0002742    0.0000665   0
    1  113.8448660  299.7784075  754.3097297   1.0000  -0.0000  -0.0000    3.1644354   -0.0002742    0.0000665   0
    1  112.5810510  298.9378878  752.7599778   1.0000  -0.0000  -0.0000    3.1644354   -0.0002742    0.0000665   0
    1  111.5308580  299.0247190  750.8609273   1.0000  -0.0000  -0.0000    3.1644354   -0.0002742    0.0000665   0
    1  110.6403585  299.7343516  748.9165648   1.0000  -0.0000  -0.0000    3.1644354   -0.0002742    0.0000665   0
    1  109.5242700  299.2069711  747.3395814   1.0000  -0.0000  -0.0000    3.1644354   -0.0002742    0.0000665   0
    1  108.2064702  298.2226501  746.0931465   1.0000  -0.0000  -0.0000    3.1644354   -0.0002742    0.0000665   0
    1  106.7816873  298.1496955  744.2368111   1.0000  -0.0000  -0.0000    3.1644354   -0.0002742    0.0000665   0
    1  105.8181583  298.4857664  742.1128454   1.0000  -0.0000  -0.0000    3.1644354   -0.0002742    0.0000665   0
    1  105.0827475  299.2600021  740.3217321   1.0000  -0.0000  -0.0000    3.1644354   -0.0002742    0.0000665   0
    1  103.9043666  299.6289799  738.7059271   1.0000  -0.0000  -0.0000    3.1644354   -0.0002742    0.0000665   0
    1  102.4841927  299.5032855  737.3759061   1.0000  -0.0000  -0.0000    3.1644354   -0.0002742    0.0000665   0
    1  101.1125533  300.3469160  736.0550163   1.0000  -0.0000  -0.0000    3.1644354   -0.0002742    0.0000665   0
    1   99.9107070  301.8579036  735.4658186   1.0000  -0.0000  -0.0000    3.1644354   -0.0002742    0.0000665   0
    1   99.1272636  303.6835418  736.0763996   1.0000  -0.0000  -0.0000    3.1644354   -0.0002742    0.0000665   0
    1   98.3148131  305.4908668  736.1634919   1.0000  -0.0000  -0.0000    3.1644354   -0.0002742    0.0000665   0
    1   96.9548753  306.8282591  735.2295023   1.0000  -0.0000  -0.0000    3.1644354   -0.0002742    0.0000665   0
    1   95.7448192  308.6895857  734.3065460   1.0000  -0.0000  -0.0000    3.1644354   -0.0002742    0.0000665   0
    1   94.7954919  311.1930154  733.6726628   1.0000  -0.0000  -0.0000    3.1644354   -0.0002742    0.0000665   0
    1   93.6548238  313.1600303  732.8570440   1.0000  -0.0000  -0.0000    3.1644354   -0.0002742    0.0000665   0
    1   92.3500989  314.3961690  731.9732597   1.0000  -0.0000  -0.0000    3.1644354   -0.0002742    0.0000665   0
    1   90.8825938  315.7533237  731.6837599   1.0000  -0.0000  -0.0000    3.1644354   -0.0002742    0.0000665   0
    1   89.5828853  317.3849854  731.8727360   1.0000  -0.0000  -0.0000    3.1644354   -0.0002742    0.0000665   0
    1   88.5271376  318.8607862  732.4050027   1.0000  -0.0000  -0.0000    3.1644354   -0.0002742    0.0000665   0
    1   87.5835017  320.1564691  733.3051514   1.0000  -0.0000  -0.0000    3.1644354   -0.0002742    0.0000665   0
    1   86.6014698  321.1006876  734.5285267   1.0000  -0.0000  -0.0000    3.1644354   -0.0002742    0.0000665   0
    1   85.9196712  321.9590440  735.6599492   1.0000  -0.0000  -0.0000    3.1644354   -0.0002742    0.0000665   0
    1   85.6332172  323.7553207  736.2803890   1.0000  -0.0000  -0.0000    3.1644354   -0.0002742    0.0000665   0
    1   84.7280770  326.1869370  736.8168405   1.0000  -0.0000  -0.0000    3.1644354   -0.0002742    0.0000665   0
    1   83.6970653  328.0334018  737.7071143   1.0000  -0.0000  -0.0000    3.1644354   -0.0002742    0.0000665   0
    1   83.1671209  329.4103331  739.0044888   1.0000  -0.0000  -0.0000    3.1644354   -0.0002742    0.0000665   0
    1   82.2957132  330.8912684  740.3765023   1.0000  -0.0000  -0.0000    3.1644354   -0.0002742    0.0000665   0
    1   81.2050511  332.4322481  741.5374648   1.0000  -0.0000  -0.0000    3.1644354   -0.0002742    0.0000665   0
    1   80.3401204  333.9980922  742.4674442   1.0000  -0.0000  -0.0000    3.1644354   -0.0002742    0.0000665   0
    1   79.5735952  335.7493461  743.3537090   1.0000  -0.0000  -0.0000    3.1644354   -0.0002742    0.0000665   0
    1   79.0068876  337.3713695  744.4773728   1.0000  -0.0000  -0.0000    3.1644354   -0.0002742    0.0000665   0
    1   78.4513118  338.8103867  745.7980815   1.0000  -0.0000  -0.0000    3.1644354   -0.0002742    0.0000665   0
    1   77.7074107  340.5273973  746.9756757   1.0000  -0.0000  -0.0000    3.1644354   -0.0002742    0.0000665   0
    1   77.0210204  342.2063512  747.8354756   1.0000  -0.0000  -0.0000    3.1644354   -0.0002742    0.0000665   0
    1   76.6754047  343.8149970  748.4884236   1.0000  -0.0000  -0.0000    3.1644354   -0.0002742    0.0000665   0
    1   76.1384380  345.5671467  748.6105674   1.0000  -0.0000  -0.0000    3.1644354   -0.0002742    0.0000665   0
    1   75.2644745  347.5300001  748.0059023   1.0000  -0.0000  -0.0000    3.1644354   -0.0002742    0.0000665   0
    1   74.5151596  349.8506080  747.3756426   1.0000  -0.0000  -0.0000    3.1644354   -0.0002742    0.0000665   0
    1   73.7180942  352.2387381  746.7448901   1.0000  -0.0000  -0.0000    3.1644354   -0.0002742    0.0000665   0
    1   73.1591062  354.8094341  745.8118775   1.0000  -0.0000  -0.0000    3.1644354   -0.0002742    0.0000665   0
    1   73.0865888  357.6562890  745.5902065   1.0000  -0.0000  -0.0000    3.1644354   -0.0002742    0.0000665   0
    1   73.0948366  360.2812252  745.7237637   1.0000  -0.0000  -0.0000    3.1644354   -0.0002742    0.0000665   0
    1   72.8150961  362.3434101  745.0413801   1.0000  -0.0000  -0.0000    3.1644354   -0.0002742    0.0000665   0
    1   72.4186012  364.0249960  743.6744577   1.0000  -0.0000  -0.0000    3.1644354   -0.0002742    0.0000665   0
    1   72.1140440  365.4956990  742.0359088   1.0000  -0.0000  -0.0000    3.1644354   -0.0002742    0.0000665   0
    1   71.4926603  366.7828040  740.7021806   1.0000  -0.0000  -0.0000    3.1644354   -0.0002742    0.0000665   0
    1   70.5126627  368.1337301  739.6672277   1.0000  -0.0000  -0.0000    3.1644354   -0.0002742    0.0000665   0
    1   69.6647449  369.9101318  738.4898013   1.0000  -0.0000  -0.0000    3.1644354   -0.0002742    0.0000665   0
    1   69.1164370  371.9021913  737.0814857   1.0000  -0.0000  -0.0000    3.1644354   -0.0002742    0.0000665   0
    1   68.5434950  373.7110843  735.7268678   1.0000  -0.0000  -0.0000    3.1644354   -0.0002742    0.0000665   0
    1   68.0620092  375.8189921  734.6708910   1.0000  -0.0000  -0.0000    3.1644354   -0.0002742    0.0000665   0
    1   68.4133266  378.2393085  733.6839012   1.0000  -0.0000  -0.0000    3.1644354   -0.0002742    0.0000665   0
    1   69.0921756  380.5565967  732.6896569   1.0000  -0.0000  -0.0000    3.1644354   -0.0002742    0.0000665   0
    1   68.9973589  383.1499241  732.3413841   1.0000  -0.0000  -0.0000    3.1644354   -0.0002742    0.0000665   0
    1   69.0032920  385.8773608  732.3190892   1.0000  -0.0000  -0.0000    3.1644354   -0.0002742    0.0000665   0
    1   69.5576480  388.0657516  731.6494847   1.0000  -0.0000  -0.0000    3.1644354   -0.0002742    0.0000665   0
    1   69.7104428  389.8672547  730.6961873   1.0000  -0.0000  -0.0000    3.1644354   -0.0002742    0.0000665   0
    1   70.2479920  391.5600856  729.6555122   1.0000  -0.0000  -0.0000    3.1644354   -0.0002742    0.0000665   0
    1   71.2203565  393.4542650  728.6787363   1.0000  -0.0000  -0.0000    3.1644354   -0.0002742    0.0000665   0
    1   71.4536883  396.0475842  728.4485590   1.0000  -0.0000  -0.0000    3.1644354   -0.0002742    0.0000665   0
    1   70.9707096  399.0266709  728.6304463   1.0000  -0.0000  -0.0000    3.1644354   -0.0002742    0.0000665   0
    1   70.3663017  401.3772620  728.1792869   1.0000  -0.0000  -0.0000    3.1644354   -0.0002742    0.0000665   0
    1   71.0781217  402.7483266  726.8679445   1.0000  -0.0000  -0.0000    3.1644354   -0.0002742    0.0000665   0
    1   73.0224761  404.1129336  725.7141215   1.0000  -0.0000  -0.0000    3.1644354   -0.0002742    0.0000665   0
    1   74.5628462  405.7790467  724.9211891   1.0000  -0.0000  -0.0000    3.1644354   -0.0002742    0.0000665   0
    1   75.7069666  407.1427412  723.5804256   1.0000  -0.0000  -0.0000    3.1644354   -0.0002742    0.0000665   0
    1   77.0993042  408.3016890  721.9038500   1.0000  -0.0000  -0.0000    3.1644354   -0.0002742    0.0000665   0
    1   77.9072811  409.4264137  719.9313802   1.0000  -0.0000  -0.0000    3.1644354   -0.0002742    0.0000665   0
    1   77.6808985  410.4322884  717.4183280   1.0000  -0.0000  -0.0000    3.1644354   -0.0002742    0.0000665   0
    1   77.6416531  411.1946785  715.1550091   1.0000  -0.0000  -0.0000    3.1644354   -0.0002742    0.0000665   0
    1   78.0326389  411.9426579  713.2849843   1.0000  -0.0000  -0.0000    3.1644354   -0.0002742    0.0000665   0
    1   78.7587195  412.7018221  711.3683697   1.0000  -0.0000  -0.0000    3.1644354   -0.0002742    0.0000665   0
    1   79.6089250  412.7564617  709.1810418   1.0000  -0.0000  -0.0000    3.1644354   -0.0002742    0.0000665   0
    1   80.1242881  412.8565369  706.9901773   1.0000  -0.0000  -0.0000    3.1644354   -0.0002742    0.0000665   0
    1   80.6708485  413.8875691  705.1136605   1.0000  -0.0000  -0.0000    3.1644354   -0.0002742    0.0000665   0
    1   81.4557198  415.2142317  703.2291410   1.0000  -0.0000  -0.0000    3.1644354   -0.0002742    0.0000665   0
    1   82.5254903  416.4605946  701.5377042   1.0000  -0.0000  -0.0000    3.1644354   -0.0002742    0.0000665   0
    1   83.4710697  417.3939887  700.1002094   1.0000  -0.0000  -0.0000    3.1644354   -0.0002742    0.0000665   0
    1   83.8790699  417.8143935  698.1335107   1.0000  -0.0000  -0.0000    3.1644354   -0.0002742    0.0000665   0
    1   83.9703509  417.9474486  695.8235522   1.0000  -0.0000  -0.0000    3.1644354   -0.0002742    0.0000665   0
    1   84.1016170  418.0405493  693.5588367   1.0000  -0.0000  -0.0000    3.1644354   -0.0002742    0.0000665   0
    1   84.5166632  418.4384461  691.4237876   1.0000  -0.0000  -0.0000    3.1644354   -0.0002742    0.0000665   0
    1   85.2733867  419.0294457  689.6450623   1.0000  -0.0000  -0.0000    3.1644354   -0.0002742    0.0000665   0
    1   86.1493472  418.8975522  687.9265423   1.0000  -0.0000  -0.0000    3.1644354   -0.0002742    0.0000665   0
    1   86.7868338  418.3729091  685.8857239   1.0000  -0.0000  -0.0000    3.1644354   -0.0002742    0.0000665   0
    1   87.2313011  417.9260675  683.3974199   1.0000  -0.0000  -0.0000    3.1644354   -0.0002742    0.0000665   0
    1   87.8426120  416.8485664  681.2509003   1.0000  -0.0000  -0.0000    3.1644354   -0.0002742    0.0000665   0
    1   88.3554146  415.6337770  679.6866014   1.0000  -0.0000  -0.0000    3.1644354   -0.0002742    0.0000665   0
    1   88.1812988  414.8241197  677.8297778   1.0000  -0.0000  -0.0000    3.1644354   -0.0002742    0.0000665   0
    1   88.1517167  414.1831898  675.7986111   1.0000  -0.0000  -0.0000    3.1644354   -0.0002742    0.0000665   0
    1   89.0447630  413.6158327  674.2245062   1.0000  -0.0000  -0.0000    3.1644354   -0.0002742    0.0000665   0
    1   89.9601694  413.2854964  672.8045436   1.0000  -0.0000  -0.0000    3.1644354   -0.0002742    0.0000665   0
    1   90.6484679  413.9169799  671.2380673   1.0000  -0.0000  -0.0000    3.1644354   -0.0002742    0.0000665   0
    1   91.2626345  415.4996563  669.9468187   1.0000  -0.0000  -0.0000    3.1644354   -0.0002742    0.0000665   0
    1   91.7943017  417.2155240  669.0667177   1.0000  -0.0000  -0.0000    3.1644354   -0.0002742    0.0000665   0
    1   92.7686851  418.7214219  669.0199350   1.0000  -0.0000  -0.0000    3.1644354   -0.0002742    0.0000665   0
    1   93.9194250  420.5813379  669.7809624   1.0000  -0.0000  -0.0000    3.1644354   -0.0002742    0.0000665   0
    1   95.1383803  422.8067526  669.9966178   1.0000  -0.0000  -0.0000    3.1644354   -0.0002742    0.0000665   0
    1   96.9171371  424.2546943  669.3440101   1.0000  -0.0000  -0.0000    3.1644354   -0.0002742    0.0000665   0
    1   98.8297226  424.8758332  668.8044587   1.0000  -0.0000  -0.0000    3.1644354   -0.0002742    0.0000665   0
    1   99.8626576  425.8574575  668.1414289   1.0000  -0.0000  -0.0000    3.1644354   -0.0002742    0.0000665   0
    1  100.2720871  427.4158990  666.4716765   1.0000  -0.0000  -0.0000    3.1644354   -0.0002742    0.0000665   0
    1  101.1456776  428.8197938  664.5225031   1.0000  -0.0000  -0.0000    3.1644354   -0.0002742    0.0000665   0
    1  102.4748605  429.9803769  663.7121787   1.0000  -0.0000  -0.0000    3.1644354   -0.0002742    0.0000665   0
    1  103.7515595  431.5080355  663.7816727   1.0000  -0.0000  -0.0000    3.1644354   -0.0002742    0.0000665   0
    1  105.1972512  433.5032255  663.2280938   1.0000  -0.0000  -0.0000    3.1644354   -0.0002742    0.0000665   0
    1  106.9358473  435.3555223  662.7999730   1.0000  -0.0000  -0.0000    3.1644354   -0.0002742    0.0000665   0
    1  108.4280558  436.8435358  663.7434921   1.0000  -0.0000  -0.0000    3.1644354   -0.0002742    0.0000665   0
    1  109.8920484  437.9349397  664.9661667   1.0000  -0.0000  -0.0000    3.1644354   -0.0002742    0.0000665   0
    1  111.5247445  438.9306116  665.6578140   1.0000  -0.0000  -0.0000    3.1644354   -0.0002742    0.0000665   0
    1  112.9587017  440.1197633  666.0844911   1.0000  -0.0000  -0.0000    3.1644354   -0.0002742    0.0000665   0
    1  113.8819057  441.2523901  666.7248235   1.0000  -0.0000  -0.0000    3.1644354   -0.0002742    0.0000665   0
    1  114.1820773  442.8307843  667.8661315   1.0000  -0.0000  -0.0000    3.1644354   -0.0002742    0.0000665   0
    1  114.7556455  444.7834936  668.9092842   1.0000  -0.0000  -0.0000    3.1644354   -0.0002742    0.0000665   0
    1  116.0186278  446.6849112  669.4938778   1.0000  -0.0000  -0.0000    3.1644354   -0.0002742    0.0000665   0
    1  117.4921011  448.8305415  670.0101423   1.0000  -0.0000  -0.0000    3.1644354   -0.0002742    0.0000665   0
    1  118.4012746  450.6577732  670.3413594   1.0000  -0.0000  -0.0000    3.1644354   -0.0002742    0.0000665   0
    1  118.6020702  452.0775199  670.7236687   1.0000  -0.0000  -0.0000    3.1644354   -0.0002742    0.0000665   0
    1  119.3717732  453.8766991  671.8454213   1.0000  -0.0000  -0.0000    3.1644354   -0.0002742    0.0000665   0
    2  498.0479534  662.9595651  618.1020011  -0.5000   0.5000   0.5000   -1.5820749    1.5810950    1.5820816   0
    2  497.0814343  658.3526944  621.5677207  -0.5000   0.5000   0.5000   -1.5820749    1.5810950    1.5820816   0
    2  497.5388465  657.4422097  623.9825503  -0.5000   0.5000   0.5000   -1.5820749    1.5810950    1.5820816   0
    2  499.2295101  657.9230867  625.6669875  -0.5000   0.5000   0.5000   -1.5820749    1.5810950    1.5820816   0
    2  500.4265642  658.2082804  627.4591746  -0.5000   0.5000   0.5000   -1.5820749    1.5810950    1.5820816   0
    2  501.5136374  658.4620774  629.0700265  -0.5000   0.5000   0.5000   -1.5820749    1.5810950    1.5820816   0
    2  503.0150202  658.7935384  629.6373065  -0.5000   0.5000   0.5000   -1.5820749    1.5810950    1.5820816   0
    2  504.5715411  659.8994757  629.3150466  -0.5000   0.5000   0.5000   -1.5820749    1.5810950    1.5820816   0
    2  505.9216247  662.0819822  628.6706354  -0.5000   0.5000   0.5000   -1.5820749    1.5810950    1.5820816   0
    2  506.8251862  664.1550408  627.7849949  -0.5000   0.5000   0.5000   -1.5820749    1.5810950    1.5820816   0
    2  508.1995714  665.2710446  626.3676016  -0.5000   0.5000   0.5000   -1.5820749    1.5810950    1.5820816   0
    2  510.8016429  665.9742858  624.0874999  -0.5000   0.5000   0.5000   -1.5820749    1.5810950    1.5820816   0
    3  509.8949500  663.7861306   -1.4941190   0.5000  -0.5000  -0.5000    1.5820749   -1.5810950   -1.5820816   0
    3  513.9617292  662.7349433   -1.3075868   0.5000  -0.5000  -0.5000    1.5820749   -1.5810950   -1.5820816   0
    3  516.3462044  662.1717045    0.1399133   0.5000  -0.5000  -0.5000    1.5820749   -1.5810950   -1.5820816   0
    3  517.8945508  661.3250118    2.2109123   0.5000  -0.5000  -0.5000    1.5820749   -1.5810950   -1.5820816   0
    3  518.9696446  659.5571656    3.8316642   0.5000  -0.5000  -0.5000    1.5820749   -1.5810950   -1.5820816   0
    3  518.9687795  657.0305024    4.6066712   0.5000  -0.5000  -0.5000    1.5820749   -1.5810950   -1.5820816   0
    3  518.5240021  654.9291691    5.2560134   0.5000  -0.5000  -0.5000    1.5820749   -1.5810950   -1.5820816   0
    3  519.0401242  653.9045657    6.8327846   0.5000  -0.5000  -0.5000    1.5820749   -1.5810950   -1.5820816   0
    3  520.0416296  653.8150598    8.9411049   0.5000  -0.5000  -0.5000    1.5820749   -1.5810950   -1.5820816   0
    3  519.9794942  654.0589373   10.6264194   0.5000  -0.5000  -0.5000    1.5820749   -1.5810950   -1.5820816   0
    3  519.6050180  653.4075677   11.9792554   0.5000  -0.5000  -0.5000    1.5820749   -1.5810950   -1.5820816   0
    3  519.4892395  651.7245323   13.3979815   0.5000  -0.5000  -0.5000    1.5820749   -1.5810950   -1.5820816   0
    3  518.1541063  649.9958010   14.4364180   0.5000  -0.5000  -0.5000    1.5820749   -1.5810950   -1.5820816   0
    3  516.1118455  648.4772586   14.7610695   0.5000  -0.5000  -0.5000    1.5820749   -1.5810950   -1.5820816   0
    3  514.9271236  646.7828401   15.2460797   0.5000  -0.5000  -0.5000    1.5820749   -1.5810950   -1.5820816   0
    3  514.2255389  645.4759056   16.5568510   0.5000  -0.5000  -0.5000    1.5820749   -1.5810950   -1.5820816   0
    3  513.3053714  644.3658126   18.3200298   0.5000  -0.5000  -0.5000    1.5820749   -1.5810950   -1.5820816   0
    3  512.3558598  643.3804392   20.5185743   0.5000  -0.5000  -0.5000    1.5820749   -1.5810950   -1.5820816   0
    3  511.9836499  643.2406960   23.1585547   0.5000  -0.5000  -0.5000    1.5820749   -1.5810950   -1.5820816   0
    3  512.5666649  643.6153494   25.1697162   0.5000  -0.5000  -0.5000    1.5820749   -1.5810950   -1.5820816   0
    3  513.9555388  644.4865183   26.0900636   0.5000  -0.5000  -0.5000    1.5820749   -1.5810950   -1.5820816   0
    3  515.5995229  645.6697094   26.1647957   0.5000  -0.5000  -0.5000    1.5820749   -1.5810950   -1.5820816   0
    3  516.6745086  646.5900774   26.1249188   0.5000  -0.5000  -0.5000    1.5820749   -1.5810950   -1.5820816   0
    3  517.0488596  647.4721168   26.9290048   0.5000  -0.5000  -0.5000    1.5820749   -1.5810950   -1.5820816   0
    3  518.1437565  648.6150532   27.7242009   0.5000  -0.5000  -0.5000    1.5820749   -1.5810950   -1.5820816   0
    3  519.6269494  650.2726228   27.9397056   0.5000  -0.5000  -0.5000    1.5820749   -1.5810950   -1.5820816   0
    3  519.9074241  652.3361772   27.8737039   0.5000  -0.5000  -0.5000    1.5820749   -1.5810950   -1.5820816   0
    3  520.1057230  654.1634725   28.0036218   0.5000  -0.5000  -0.5000    1.5820749   -1.5810950   -1.5820816   0
    3  521.6587050  655.5466332   28.7784058   0.5000  -0.5000  -0.5000    1.5820749   -1.5810950   -1.5820816   0
    3  523.4803991  656.9205883   29.5769181   0.5000  -0.5000  -0.5000    1.5820749   -1.5810950   -1.5820816   0
    3  524.4785148  658.6472492   29.9572220   0.5000  -0.5000  -0.5000    1.5820749   -1.5810950   -1.5820816   0
    3  525.4109494  660.3152604   29.6844233   0.5000  -0.5000  -0.5000    1.5820749   -1.5810950   -1.5820816   0
    3  526.1198452  661.6126139   28.4501576   0.5000  -0.5000  -0.5000    1.5820749   -1.5810950   -1.5820816   0
    3  526.0490244  662.9480986   26.7065488   0.5000  -0.5000  -0.5000    1.5820749   -1.5810950   -1.5820816   0
    3  525.4792687  664.7425433   25.3474727   0.5000  -0.5000  -0.5000    1.5820749   -1.5810950   -1.5820816   0
    3  524.7672082  666.1405999   24.1804754   0.5000  -0.5000  -0.5000    1.5820749   -1.5810950   -1.5820816   0
    3  524.8829879  666.8132698   23.0084827   0.5000  -0.5000  -0.5000    1.5820749   -1.5810950   -1.5820816   0
    3  525.9516238  667.1757444   22.0583095   0.5000  -0.5000  -0.5000    1.5820749   -1.5810950   -1.5820816   0
    3  527.2920200  667.2632279   21.4284881   0.5000  -0.5000  -0.5000    1.5820749   -1.5810950   -1.5820816   0
    3  528.1648497  668.1635654   21.5692993   0.5000  -0.5000  -0.5000    1.5820749   -1.5810950   -1.5820816   0
    3  528.4193185  670.3596124   21.7365957   0.5000  -0.5000  -0.5000    1.5820749   -1.5810950   -1.5820816   0
    3  529.2046828  672.8215397   21.6863937   0.5000  -0.5000  -0.5000    1.5820749   -1.5810950   -1.5820816   0
    3  530.7993182  674.6957227   22.4116388   0.5000  -0.5000  -0.5000    1.5820749   -1.5810950   -1.5820816   0
    3  532.5853451  676.2117069   22.9908526   0.5000  -0.5000  -0.5000    1.5820749   -1.5810950   -1.5820816   0
    3  534.3560566  677.5543894   22.5351899   0.5000  -0.5000  -0.5000    1.5820749   -1.5810950   -1.5820816   0
    3  536.2005105  678.6665272   22.1939964   0.5000  -0.5000  -0.5000    1.5820749   -1.5810950   -1.5820816   0
    3  537.8314416  679.8594723   21.6608115   0.5000  -0.5000  -0.5000    1.5820749   -1.5810950   -1.5820816   0
    3  538.9652833  681.2155464   20.0751825   0.5000  -0.5000  -0.5000    1.5820749   -1.5810950   -1.5820816   0
    3  539.8869353  682.6202299   18.5908730   0.5000  -0.5000  -0.5000    1.5820749   -1.5810950   -1.5820816   0
    3  540.8169503  684.3767445   17.4997954   0.5000  -0.5000  -0.5000    1.5820749   -1.5810950   -1.5820816   0
    3  541.8923482  686.6060703   16.5079762   0.5000  -0.5000  -0.5000    1.5820749   -1.5810950   -1.5820816   0
    3  542.8647412  688.6855286   15.7474309   0.5000  -0.5000  -0.5000    1.5820749   -1.5810950   -1.5820816   0
    3  543.5384027  690.3261011   15.2215834   0.5000  -0.5000  -0.5000    1.5820749   -1.5810950   -1.5820816   0
    3  543.9857055  691.6723922   15.7701416   0.5000  -0.5000  -0.5000    1.5820749   -1.5810950   -1.5820816   0
    3  544.6916129  692.4306666   17.2465655   0.5000  -0.5000  -0.5000    1.5820749   -1.5810950   -1.5820816   0
    3  546.1322071  692.9214625   18.6487019   0.5000  -0.5000  -0.5000    1.5820749   -1.5810950   -1.5820816   0
    3  547.8110000  694.4095289   20.3042062   0.5000  -0.5000  -0.5000    1.5820749   -1.5810950   -1.5820816   0
    4  456.3906889  566.2889222   84.2926934  -1.0000  -0.0000  -0.0000   -3.1644354    0.0002742   -0.0000665   0
    4  458.5615574  565.5514527   84.3141820  -1.0000  -0.0000  -0.0000   -3.1644354    0.0002742   -0.0000665   0
    4  460.2091103  564.1584172   84.0304076  -1.0000  -0.0000  -0.0000   -3.1644354    0.0002742   -0.0000665   0
    4  461.8362643  562.5647085   83.8525998  -1.0000  -0.0000  -0.0000   -3.1644354    0.0002742   -0.0000665   0
    4  463.4854524  561.4920051   83.5840281  -1.0000  -0.0000  -0.0000   -3.1644354    0.0002742   -0.0000665   0
    4  464.9308722  560.7157672   82.8643038  -1.0000  -0.0000  -0.0000   -3.1644354    0.0002742   -0.0000665   0
    4  465.9469714  559.5486385   81.9796356  -1.0000  -0.0000  -0.0000   -3.1644354    0.0002742   -0.0000665   0
    4  466.9150432  558.2497260   81.4961496  -1.0000  -0.0000  -0.0000   -3.1644354    0.0002742   -0.0000665   0
    4  468.5936403  557.3142197   81.7595865  -1.0000  -0.0000  -0.0000   -3.1644354    0.0002742   -0.0000665   0
    4  470.7796869  556.8279963   82.2869659  -1.0000  -0.0000  -0.0000   -3.1644354    0.0002742   -0.0000665   0
    4  473.0443807  556.6544433   82.6087991  -1.0000  -0.0000  -0.0000   -3.1644354    0.0002742   -0.0000665   0
    4  475.2439893  556.4382521   82.8032549  -1.0000  -0.0000  -0.0000   -3.1644354    0.0002742   -0.0000665   0
    4  477.2626856  555.7262865   82.4470589  -1.0000  -0.0000  -0.0000   -3.1644354    0.0002742   -0.0000665   0
    4  479.2768055  554.8613406   81.6137798  -1.0000  -0.0000  -0.0000   -3.1644354    0.0002742   -0.0000665   0
    4  481.2791988  554.1867120   81.0664982  -1.0000  -0.0000  -0.0000   -3.1644354    0.0002742   -0.0000665   0
    4  483.2131060  553.3474652   80.3200292  -1.0000  -0.0000  -0.0000   -3.1644354    0.0002742   -0.0000665   0
    4  485.2850946  552.8724141   79.2780166  -1.0000  -0.0000  -0.0000   -3.1644354    0.0002742   -0.0000665   0
    4  487.2218503  552.3844265   78.6558674  -1.0000  -0.0000  -0.0000   -3.1644354    0.0002742   -0.0000665   0
    4  488.9010729  551.3567619   78.8108639  -1.0000  -0.0000  -0.0000   -3.1644354    0.0002742   -0.0000665   0
    4  490.8157958  550.6014689   79.4945519  -1.0000  -0.0000  -0.0000   -3.1644354    0.0002742   -0.0000665   0
    4  492.9992866  549.8150134   80.3514084  -1.0000  -0.0000  -0.0000   -3.1644354    0.0002742   -0.0000665   0
    4  495.1020675  548.8958759   81.0822309  -1.0000  -0.0000  -0.0000   -3.1644354    0.0002742   -0.0000665   0
    4  497.3037559  548.4374126   81.3034314  -1.0000  -0.0000  -0.0000   -3.1644354    0.0002742   -0.0000665   0
    4  499.4719869  548.3204659   80.8386446  -1.0000  -0.0000  -0.0000   -3.1644354    0.0002742   -0.0000665   0
    4  501.1084977  547.7391578   80.2604137  -1.0000  -0.0000  -0.0000   -3.1644354    0.0002742   -0.0000665   0
    4  502.8494178  546.4443281   80.3667040  -1.0000  -0.0000  -0.0000   -3.1644354    0.0002742   -0.0000665   0
    4  505.0412579  545.9797207   81.0178836  -1.0000  -0.0000  -0.0000   -3.1644354    0.0002742   -0.0000665   0
    4  507.0831725  546.6837877   81.9476070  -1.0000  -0.0000  -0.0000   -3.1644354    0.0002742   -0.0000665   0
    4  509.1709547  547.1298217   82.6206654  -1.0000  -0.0000  -0.0000   -3.1644354    0.0002742   -0.0000665   0
    4  511.4944869  547.0726711   82.6501555  -1.0000  -0.0000  -0.0000   -3.1644354    0.0002742   -0.0000665   0
    4  513.7405496  547.1124873   82.6739207  -1.0000  -0.0000  -0.0000   -3.1644354    0.0002742   -0.0000665   0
    4  515.9565920  547.3001788   83.3076842  -1.0000  -0.0000  -0.0000   -3.1644354    0.0002742   -0.0000665   0
    4  518.3588015  547.4614365   84.1734683  -1.0000  -0.0000  -0.0000   -3.1644354    0.0002742   -0.0000665   0
    5  672.2529522  372.6866612  234.5599921   0.5000   0.5000   0.5000    1.5823605    1.5808208    1.5821481   1
    5  673.1679171  372.3054846  236.0244336   0.5000   0.5000   0.5000    1.5823605    1.5808208    1.5821481   1
    5  674.5264143  371.3090908  236.5022753   0.5000   0.5000   0.5000    1.5823605    1.5808208    1.5821481   1
    5  675.4592958  369.9893920  236.7506024   0.5000   0.5000   0.5000    1.5823605    1.5808208    1.5821481   1
    5  675.6680877  368.5951565  237.6337861   0.5000   0.5000   0.5000    1.5823605    1.5808208    1.5821481   1