ITEM: TIMESTEP
0
ITEM: NUMBER OF ATOMS
10067
ITEM: BOX BOUNDS pp pp pp 
0.0 696.090005
0.0 696.527131
0.0 697.826676
ITEM: ATOMS id x y z tbx tby tbz sbx sby sbz loop
    0  277.3472538  652.1629072  346.8170739  -0.5000  -0.5000   0.5000   -1.5824101   -1.5834830    1.5828824   0
    0  275.3986277  654.1977265  344.9187965  -0.5000  -0.5000   0.5000   -1.5824101   -1.5834830    1.5828824   0
    0  273.6327093  655.0299460  343.7887196  -0.5000  -0.5000   0.5000   -1.5824101   -1.5834830    1.5828824   0
    0  272.3736290  656.6021041  343.5786494  -0.5000  -0.5000   0.5000   -1.5824101   -1.5834830    1.5828824   0
    0  271.9261571  659.6780667  343.6675318  -0.5000  -0.5000   0.5000   -1.5824101   -1.5834830    1.5828824   0
    0  272.0008258  662.1917326  344.2663510  -0.5000  -0.5000   0.5000   -1.5824101   -1.5834830    1.5828824   0
    0  272.1838647  663.8492989  345.4910224  -0.5000  -0.5000   0.5000   -1.5824101   -1.5834830    1.5828824   0
    0  271.9611171  665.7709036  346.1405840  -0.5000  -0.5000   0.5000   -1.5824101   -1.5834830    1.5828824   0
    0  271.5719087  667.2403487  346.0931192  -0.5000  -0.5000   0.5000   -1.5824101   -1.5834830    1.5828824   0
    0  272.0065902  668.6115053  347.2376016  -0.5000  -0.5000   0.5000   -1.5824101   -1.5834830    1.5828824   0
    0  273.5636167  670.8526258  351.0650478  -0.5000  -0.5000   0.5000   -1.5824101   -1.5834830    1.5828824   0
    1  486.4293045  380.0066932  661.0929659   0.5000   0.5000   0.5000    1.5816138    1.5795618    1.5813736   0
    1  489.8630785  380.1661127  658.2735079   0.5000   0.5000   0.5000    1.5816138    1.5795618    1.5813736   0
    1  491.0028811  381.5548209  656.3759656   0.5000   0.5000   0.5000    1.5816138    1.5795618    1.5813736   0
    1  490.8434027  383.0996177  654.9588189   0.5000   0.5000   0.5000    1.5816138    1.5795618    1.5813736   0
    1  490.8538178  383.9613129  652.8367842   0.5000   0.5000   0.5000    1.5816138    1.5795618    1.5813736   0
    1  491.6477703  384.1995937  650.0744842   0.5000   0.5000   0.5000    1.5816138    1.5795618    1.5813736   0
    1  493.0830325  384.4786174  648.3399925   0.5000   0.5000   0.5000    1.5816138    1.5795618    1.5813736   0
    1  494.0287386  385.5690065  647.7411161   0.5000   0.5000   0.5000    1.5816138    1.5795618    1.5813736   0
    1  493.6375026  387.1813620  646.9461693   0.5000   0.5000   0.5000    1.5816138    1.5795618    1.5813736   0
    1  492.5147950  388.9644134  646.2279454   0.5000   0.5000   0.5000    1.5816138    1.5795618    1.5813736   0
    1  491.7217436  390.5805585  644.8286258   0.5000   0.5000   0.5000    1.5816138    1.5795618    1.5813736   0
    1  492.2594308  391.2190710  642.2603293   0.5000   0.5000   0.5000    1.5816138    1.5795618    1.5813736   0
    1  494.2084470  390.9880839  640.5598404   0.5000   0.5000   0.5000    1.5816138    1.5795618    1.5813736   0
    1  496.1475217  390.3509291  639.7850863   0.5000   0.5000   0.5000    1.5816138    1.5795618    1.5813736   0
    1  497.5418034  389.2928617  638.7222646   0.5000   0.5000   0.5000    1.5816138    1.5795618    1.5813736   0
    1  498.7360701  388.0486378  637.4355909   0.5000   0.5000   0.5000    1.5816138    1.5795618    1.5813736   0
    1  499.9282561  386.8435319  636.2301345   0.5000   0.5000   0.5000    1.5816138    1.5795618    1.5813736   0
    1  501.4044795  385.6797141  635.4507727   0.5000   0.5000   0.5000    1.5816138    1.5795618    1.5813736   0
    1  503.1595310  384.2210157  635.2357268   0.5000   0.5000   0.5000    1.5816138    1.5795618    1.5813736   0
    1  504.9972096  382.2773353  635.2080168   0.5000   0.5000   0.5000    1.5816138    1.5795618    1.5813736   0
    1  506.1808870  380.0161958  635.4357715   0.5000   0.5000   0.5000    1.5816138    1.5795618    1.5813736   0
    1  506.3503085  378.1100258  636.6316581   0.5000   0.5000   0.5000    1.5816138    1.5795618    1.5813736   0
    1  506.2434938  376.3639956  638.1304670   0.5000   0.5000   0.5000    1.5816138    1.5795618    1.5813736   0
    1  505.8489059  374.2545702  639.0486298   0.5000   0.5000   0.5000    1.5816138    1.5795618    1.5813736   0
    1  504.7997375  373.0192661  640.0761482   0.5000   0.5000   0.5000    1.5816138    1.5795618    1.5813736   0
    1  503.7322846  372.5027665  641.4735976   0.5000   0.5000   0.5000    1.5816138    1.5795618    1.5813736   0
    1  503.3198606  372.0081519  643.2623528   0.5000   0.5000   0.5000    1.5816138    1.5795618    1.5813736   0
    1  503.2386059  371.9953834  645.2674599   0.5000   0.5000   0.5000    1.5816138    1.5795618    1.5813736   0
    1  503.2618326  371.9013984  646.9791612   0.5000   0.5000   0.5000    1.5816138    1.5795618    1.5813736   0
    1  503.6817894  371.4908290  648.8162199   0.5000   0.5000   0.5000    1.5816138    1.5795618    1.5813736   0
    1  504.7186718  371.0421691  650.6217232   0.5000   0.5000   0.5000    1.5816138    1.5795618    1.5813736   0
    1  506.0170027  369.4549249  651.3644650   0.5000   0.5000   0.5000    1.5816138    1.5795618    1.5813736   0
    1  506.7131277  366.6557157  651.4738874   0.5000   0.5000   0.5000    1.5816138    1.5795618    1.5813736   0
    1  506.5425454  364.3754360  652.1714497   0.5000   0.5000   0.5000    1.5816138    1.5795618    1.5813736   0
    1  505.7489703  363.5707259  653.8536524   0.5000   0.5000   0.5000    1.5816138    1.5795618    1.5813736   0
    1  504.5611497  363.7064831  655.9011351   0.5000   0.5000   0.5000    1.5816138    1.5795618    1.5813736   0
    1  502.9855151  364.0438931  657.4317639   0.5000   0.5000   0.5000    1.5816138    1.5795618    1.5813736   0
    1  501.4759774  364.8289181  658.6323921   0.5000   0.5000   0.5000    1.5816138    1.5795618    1.5813736   0
    1  500.2547889  366.1183189  659.7438678   0.5000   0.5000   0.5000    1.5816138    1.5795618    1.5813736   0
    1  499.0320870  366.9867349  661.1821254   0.5000   0.5000   0.5000    1.5816138    1.5795618    1.5813736   0
    1  497.5193584  366.7540934  663.0140567   0.5000   0.5000   0.5000    1.5816138    1.5795618    1.5813736   0
    1  495.6361364  366.5543501  664.0405653   0.5000   0.5000   0.5000    1.5816138    1.5795618    1.5813736   0
    1  494.3401243  367.7694127  664.0736862   0.5000   0.5000   0.5000    1.5816138    1.5795618    1.5813736   0
    1  494.0319005  370.3593571  663.9226504   0.5000   0.5000   0.5000    1.5816138    1.5795618    1.5813736   0
    1  494.0837613  373.0778852  663.4185894   0.5000   0.5000   0.5000    1.5816138    1.5795618    1.5813736   0
    1  494.1006030  374.7409635  661.9872516   0.5000   0.5000   0.5000    1.5816138    1.5795618    1.5813736   0
    1  493.6332089  375.8876770  660.3441239   0.5000   0.5000   0.5000    1.5816138    1.5795618    1.5813736   0
    1  492.4739310  377.2861717  659.3981805   0.5000   0.5000   0.5000    1.5816138    1.5795618    1.5813736   0
    1  491.2960007  378.5072513  659.5857011   0.5000   0.5000   0.5000    1.5816138    1.5795618    1.5813736   0
    1  489.6748296  379.2171086  660.4965304   0.5000   0.5000   0.5000    1.5816138    1.5795618    1.5813736   0
    1  486.4293045  380.0066932  661.0929659   0.5000   0.5000   0.5000    1.5816138    1.5795618    1.5813736   0
    2  697.5121050  127.8809029  129.7029999  -0.5000  -0.5000  -0.5000   -1.5816138   -1.5795618   -1.5813736   1
    2  695.4775227  128.2529459  130.1323624  -0.5000  -0.5000  -0.5000   -1.5816138   -1.5795618   -1.5813736   1
    2  693.4408707  128.8978550  130.2692693  -0.5000  -0.5000  -0.5000   -1.5816138   -1.5795618   -1.5813736   1
    2  691.8610849  129.4001767  128.6505475  -0.5000  -0.5000  -0.5000   -1.5816138   -1.5795618   -1.5813736   1
    2  691.1651626  129.9803703  126.3197392  -0.5000  -0.5000  -0.5000   -1.5816138   -1.5795618   -1.5813736   1
    2  690.4947448  131.0112944  124.9654924  -0.5000  -0.5000  -0.5000   -1.5816138   -1.5795618   -1.5813736   1
    2  689.7897937  132.5667411  124.2129442  -0.5000  -0.5000  -0.5000   -1.5816138   -1.5795618   -1.5813736   1
    2  688.7399480  134.1529769  123.7555963  -0.5000  -0.5000  -0.5000   -1.5816138   -1.5795618   -1.5813736   1
    2  686.0636775  134.7502204  123.5113769  -0.5000  -0.5000  -0.5000   -1.5816138   -1.5795618   -1.5813736   1
    2  682.9105140  134.5984695  123.7741746  -0.5000  -0.5000  -0.5000   -1.5816138   -1.5795618   -1.5813736   1
    2  680.9576037  134.4967754  125.0307581  -0.5000  -0.5000  -0.5000   -1.5816138   -1.5795618   -1.5813736   1
    2  679.2208997  134.4963359  126.6815350  -0.5000  -0.5000  -0.5000   -1.5816138   -1.5795618   -1.5813736   1
    2  677.7038345  134.0347637  128.4133216  -0.5000  -0.5000  -0.5000   -1.5816138   -1.5795618   -1.5813736   1
    2  677.4588421  132.7207381  130.1223980  -0.5000  -0.5000  -0.5000   -1.5816138   -1.5795618   -1.5813736   1
    2  677.6484556  131.2816186  131.8183117  -0.5000  -0.5000  -0.5000   -1.5816138   -1.5795618   -1.5813736   1
    2  677.9265023  130.1887362  133.5721471  -0.5000  -0.5000  -0.5000   -1.5816138   -1.5795618   -1.5813736   1
    2  678.8032131  128.8998769  134.6419507  -0.5000  -0.5000  -0.5000   -1.5816138   -1.5795618   -1.5813736   1
    2  680.4975584  127.7700319  134.6624636  -0.5000  -0.5000  -0.5000   -1.5816138   -1.5795618   -1.5813736   1
    2  682.9239941  127.1136179  134.0709028  -0.5000  -0.5000  -0.5000   -1.5816138   -1.5795618   -1.5813736   1
    2  684.7288109  126.6754274  132.9489581  -0.5000  -0.5000  -0.5000   -1.5816138   -1.5795618   -1.5813736   1
    2  685.9248539  126.8011919  131.6456368  -0.5000  -0.5000  -0.5000   -1.5816138   -1.5795618   -1.5813736   1
    2  687.9699173  127.4168860  130.8380582  -0.5000  -0.5000  -0.5000   -1.5816138   -1.5795618   -1.5813736   1
    2  690.7465189  128.1351631  130.3835835  -0.5000  -0.5000  -0.5000   -1.5816138   -1.5795618   -1.5813736   1
    2  693.6046098  128.5262149  130.2647974  -0.5000  -0.5000  -0.5000   -1.5816138   -1.5795618   -1.5813736   1
    2  695.9138087  128.3725774  130.1780827  -0.5000  -0.5000  -0.5000   -1.5816138   -1.5795618   -1.5813736   1
    2  697.5121051  127.8809030  129.7029999  -0.5000  -0.5000  -0.5000   -1.5816138   -1.5795618   -1.5813736   1
    3  696.6026877  289.6689658  293.9241693   0.5000   0.5000   0.5000    1.5816138    1.5795618    1.5813736   1
    3  697.2094448  290.9616223  295.0740274   0.5000   0.5000   0.5000    1.5816138    1.5795618    1.5813736   1
    3  696.3658967  292.3685050  296.5390166   0.5000   0.5000   0.5000    1.5816138    1.5795618    1.5813736   1
    3  694.1377145  293.4055269  297.4300939   0.5000   0.5000   0.5000    1.5816138    1.5795618    1.5813736   1
    3  691.7137439  294.1158967  297.9641771   0.5000   0.5000   0.5000    1.5816138    1.5795618    1.5813736   1
    3  689.4297134  295.0117698  297.6835318   0.5000   0.5000   0.5000    1.5816138    1.5795618    1.5813736   1
    3  688.1927415  296.1904898  297.1217306   0.5000   0.5000   0.5000    1.5816138    1.5795618    1.5813736   1
    3  689.2523801  297.1921557  297.1682609   0.5000   0.5000   0.5000    1.5816138    1.5795618    1.5813736   1
    3  691.3907526  297.9442862  296.9440445   0.5000   0.5000   0.5000    1.5816138    1.5795618    1.5813736   1
    3  693.0388435  298.8356835  295.7362039   0.5000   0.5000   0.5000    1.5816138    1.5795618    1.5813736   1
    3  693.7567992  300.0391993  294.2460568   0.5000   0.5000   0.5000    1.5816138    1.5795618    1.5813736   1
    3  693.5457861  301.3606829  292.9340188   0.5000   0.5000   0.5000    1.5816138    1.5795618    1.5813736   1
    3  692.7926768  302.5906041  291.7839370   0.5000   0.5000   0.5000    1.5816138    1.5795618    1.5813736   1
    3  692.0706652  304.3532950  291.1304337   0.5000   0.5000   0.5000    1.5816138    1.5795618    1.5813736   1
    3  691.8844888  306.4001568  290.2035549   0.5000   0.5000   0.5000    1.5816138    1.5795618    1.5813736   1
    3  692.6546905  307.4668956  288.4571679   0.5000   0.5000   0.5000    1.5816138    1.5795618    1.5813736   1
    3  694.4534477  307.5861658  287.0151415   0.5000   0.5000   0.5000    1.5816138    1.5795618    1.5813736   1
    3  696.1364172  306.9744055  286.6518802   0.5000   0.5000   0.5000    1.5816138    1.5795618    1.5813736   1
    3  697.2209601  305.7948818  287.3153595   0.5000   0.5000   0.5000    1.5816138    1.5795618    1.5813736   1
    3  697.8628311  303.9583705  288.0130614   0.5000   0.5000   0.5000    1.5816138    1.5795618    1.5813736   1
    3  698.1893930  301.3846942  288.1517740   0.5000   0.5000   0.5000    1.5816138    1.5795618    1.5813736   1
    3  699.0280300  299.1018769  288.4584076   0.5000   0.5000   0.5000    1.5816138    1.5795618    1.5813736   1
    3  699.7211769  297.5347894  289.4497425   0.5000   0.5000   0.5000    1.5816138    1.5795618    1.5813736   1
    3  699.5664814  296.3879031  291.0139826   0.5000   0.5000   0.5000    1.5816138    1.5795618    1.5813736   1
    3  699.5178662  295.0764763  292.4463842   0.5000   0.5000   0.5000    1.5816138    1.5795618    1.5813736   1
    3  699.7738189  293.6519218  293.4327533   0.5000   0.5000   0.5000    1.5816138    1.5795618    1.5813736   1
    3  699.6796957  292.7750461  294.7185509   0.5000   0.5000   0.5000    1.5816138    1.5795618    1.5813736   1
    3  698.6248257  291.6527445  295.0972765   0.5000   0.5000   0.5000    1.5816138    1.5795618    1.5813736   1
    3  696.6026878  289.6689658  293.9241693   0.5000   0.5000   0.5000    1.5816138    1.5795618    1.5813736   1
    4  540.7138333  274.8790000  226.7125834  -0.5000   0.5000  -0.5000   -1.5817815    1.5847276   -1.5814463   0
    4  542.2695071  273.6769427  226.6681464  -0.5000   0.5000  -0.5000   -1.5817815    1.5847276   -1.5814463   0
    4  544.2129586  273.6172924  226.6629203  -0.5000   0.5000  -0.5000   -1.5817815    1.5847276   -1.5814463   0
    4  546.2150457  275.0816796  226.6622467  -0.5000   0.5000  -0.5000   -1.5817815    1.5847276   -1.5814463   0
    4  547.0213162  277.0671649  226.9314313  -0.5000   0.5000  -0.5000   -1.5817815    1.5847276   -1.5814463   0
    4  546.4624844  278.8386554  227.1752640  -0.5000   0.5000  -0.5000   -1.5817815    1.5847276   -1.5814463   0
    4  545.9342405  280.8858521  227.6897601  -0.5000   0.5000  -0.5000   -1.5817815    1.5847276   -1.5814463   0
    4  545.3310691  283.0494999  228.6529861  -0.5000   0.5000  -0.5000   -1.5817815    1.5847276   -1.5814463   0
    4  544.1775373  284.7594362  229.1579686  -0.5000   0.5000  -0.5000   -1.5817815    1.5847276   -1.5814463   0
    4  542.5977671  286.0324736  229.4550502  -0.5000   0.5000  -0.5000   -1.5817815    1.5847276   -1.5814463   0
    4  540.5381388  286.6704442  230.3871389  -0.5000   0.5000  -0.5000   -1.5817815    1.5847276   -1.5814463   0
    4  538.5428567  286.9658812  231.6220487  -0.5000   0.5000  -0.5000   -1.5817815    1.5847276   -1.5814463   0
    4  537.2294288  287.9110439  232.9939938  -0.5000   0.5000  -0.5000   -1.5817815    1.5847276   -1.5814463   0
    4  535.8578167  289.1991643  234.1184813  -0.5000   0.5000  -0.5000   -1.5817815    1.5847276   -1.5814463   0
    4  534.2604428  289.4788567  235.0742606  -0.5000   0.5000  -0.5000   -1.5817815    1.5847276   -1.5814463   0
    4  533.1413141  288.7725722  237.0551137  -0.5000   0.5000  -0.5000   -1.5817815    1.5847276   -1.5814463   0
    4  532.0662153  287.7381595  239.0239261  -0.5000   0.5000  -0.5000   -1.5817815    1.5847276   -1.5814463   0
    4  531.4603422  285.9261357  239.7414852  -0.5000   0.5000  -0.5000   -1.5817815    1.5847276   -1.5814463   0
    4  531.9851111  283.3604555  240.1775445  -0.5000   0.5000  -0.5000   -1.5817815    1.5847276   -1.5814463   0
    5  651.2548571   34.3763785  541.2197143   0.5000   0.5000   0.5000    1.5816138    1.5795618    1.5813736   0
    5  648.2167714   34.5871322  540.3391405   0.5000   0.5000   0.5000    1.5816138    1.5795618    1.5813736   0
    5  648.6447197   36.4890578  540.5782360   0.5000   0.5000   0.5000    1.5816138    1.5795618    1.5813736   0
    5  651.2446525   37.9459206  541.4458912   0.5000   0.5000   0.5000    1.5816138    1.5795618    1.5813736   0
    5  653.1624344   37.5927057  542.3166842   0.5000   0.5000   0.5000    1.5816138    1.5795618    1.5813736   0
    5  653.1409188   36.3586650  542.2182078   0.5000   0.5000   0.5000    1.5816138    1.5795618    1.5813736   0
    5  651.2548571   34.3763785  541.2197143   0.5000   0.5000   0.5000    1.5816138    1.5795618    1.5813736   0
    6  641.0077499  187.3547500  619.3680556   0.0000   0.0000   1.0000   -0.0007963   -0.0039212    3.1642560   0
    6  641.9790087  188.9270975  618.4967336   0.0000   0.0000   1.0000   -0.0007963   -0.0039212    3.1642560   0
    6  641.9284315  190.6124663  618.3119240   0.0000   0.0000   1.0000   -0.0007963   -0.0039212    3.1642560   0
    6  640.9997552  192.3898576  617.7606092   0.0000   0.0000   1.0000   -0.0007963   -0.0039212    3.1642560   0
    6  640.3347228  194.2795978  616.7873210   0.0000   0.0000   1.0000   -0.0007963   -0.0039212    3.1642560   0
    6  640.7015949  196.0806786  615.9611173   0.0000   0.0000   1.0000   -0.0007963   -0.0039212    3.1642560   0
    6  641.2528201  198.1985311  615.4927804   0.0000   0.0000   1.0000   -0.0007963   -0.0039212    3.1642560   0
    6  640.8720338  200.5151963  615.0102818   0.0000   0.0000   1.0000   -0.0007963   -0.0039212    3.1642560   0
    6  639.9951384  202.5151232  614.2601787   0.0000   0.0000   1.0000   -0.0007963   -0.0039212    3.1642560   0
    6  639.1882638  204.3207966  613.6451710   0.0000   0.0000   1.0000   -0.0007963   -0.0039212    3.1642560   0
    6  638.1694855  206.0347347  613.2495971   0.0000   0.0000   1.0000   -0.0007963   -0.0039212    3.1642560   0
    6  637.2367597  207.9265547  613.3255529   0.0000   0.0000   1.0000   -0.0007963   -0.0039212    3.1642560   0
    6  637.2209945  209.8742616  613.3218898   0.0000   0.0000   1.0000   -0.0007963   -0.0039212    3.1642560   0
    6  637.8212427  211.7740942  612.5977769   0.0000   0.0000   1.0000   -0.0007963   -0.0039212    3.1642560   0
    6  637.8297106  213.8952057  611.6980115   0.0000   0.0000   1.0000   -0.0007963   -0.0039212    3.1642560   0
    6  637.0696134  216.2090658  610.9694748   0.0000   0.0000   1.0000   -0.0007963   -0.0039212    3.1642560   0
    6  636.8239806  218.6692185  610.3406645   0.0000   0.0000   1.0000   -0.0007963   -0.0039212    3.1642560   0
    6  637.4425242  220.6134117  609.6809754   0.0000   0.0000   1.0000   -0.0007963   -0.0039212    3.1642560   0
    6  637.9545785  222.2512489  609.2713538   0.0000   0.0000   1.0000   -0.0007963   -0.0039212    3.1642560   0
    6  637.7738494  224.1347961  608.7198724   0.0000   0.0000   1.0000   -0.0007963   -0.0039212    3.1642560   0
    6  637.3158366  225.6615524  607.3867008   0.0000   0.0000   1.0000   -0.0007963   -0.0039212    3.1642560   0
    6  637.6602501  227.2843396  606.1667154   0.0000   0.0000   1.0000   -0.0007963   -0.0039212    3.1642560   0
    6  638.9182747  229.2117080  605.3539961   0.0000   0.0000   1.0000   -0.0007963   -0.0039212    3.1642560   0
    6  640.1113501  230.8708025  604.3815796   0.0000   0.0000   1.0000   -0.0007963   -0.0039212    3.1642560   0
    6  640.8816031  232.6723253  603.1551985   0.0000   0.0000   1.0000   -0.0007963   -0.0039212    3.1642560   0
    7  640.8816031  232.6723253  603.1551985   0.5000  -0.5000   0.5000    1.5817815   -1.5847276    1.5814463   0
    7  638.8046998  234.0743305  604.0893933   0.5000  -0.5000   0.5000    1.5817815   -1.5847276    1.5814463   0
    7  636.4705705  235.1156106  604.0942756   0.5000  -0.5000   0.5000    1.5817815   -1.5847276    1.5814463   0
    7  634.5807144  236.4947295  603.5440565   0.5000  -0.5000   0.5000    1.5817815   -1.5847276    1.5814463   0
    7  633.2719200  238.6093815  602.3100126   0.5000  -0.5000   0.5000    1.5817815   -1.5847276    1.5814463   0
    7  632.0784693  240.7232817  600.8387889   0.5000  -0.5000   0.5000    1.5817815   -1.5847276    1.5814463   0
    7  630.8158478  242.5454274  600.0819879   0.5000  -0.5000   0.5000    1.5817815   -1.5847276    1.5814463   0
    7  629.4309682  244.3589524  600.0428413   0.5000  -0.5000   0.5000    1.5817815   -1.5847276    1.5814463   0
    8  412.3040000  180.1974167  514.8214166  -0.5000  -0.5000   0.5000   -1.5824101   -1.5834830    1.5828824   0
    8  412.5004372  182.2612216  515.5860845  -0.5000  -0.5000   0.5000   -1.5824101   -1.5834830    1.5828824   0
    8  412.5577769  185.0495131  515.4658290  -0.5000  -0.5000   0.5000   -1.5824101   -1.5834830    1.5828824   0
    8  412.5110689  187.7179885  515.4318851  -0.5000  -0.5000   0.5000   -1.5824101   -1.5834830    1.5828824   0
    8  412.2172872  190.0350921  515.4610377  -0.5000  -0.5000   0.5000   -1.5824101   -1.5834830    1.5828824   0
    8  411.5508780  192.1973862  514.8506869  -0.5000  -0.5000   0.5000   -1.5824101   -1.5834830    1.5828824   0
    8  410.2610692  193.8342548  514.6054587  -0.5000  -0.5000   0.5000   -1.5824101   -1.5834830    1.5828824   0
    8  408.8080598  195.4343736  514.7643334  -0.5000  -0.5000   0.5000   -1.5824101   -1.5834830    1.5828824   0
    8  408.4932271  197.6624922  514.8089333  -0.5000  -0.5000   0.5000   -1.5824101   -1.5834830    1.5828824   0
    8  409.3328322  199.9064205  515.3814558  -0.5000  -0.5000   0.5000   -1.5824101   -1.5834830    1.5828824   0
    8  410.3263379  201.8627132  516.4399512  -0.5000  -0.5000   0.5000   -1.5824101   -1.5834830    1.5828824   0
    8  411.1604942  203.4420252  517.4088399  -0.5000  -0.5000   0.5000   -1.5824101   -1.5834830    1.5828824   0
    8  411.8187809  204.2373443  518.5028440  -0.5000  -0.5000   0.5000   -1.5824101   -1.5834830    1.5828824   0
    8  412.3320714  204.7102856  520.1108571  -0.5000  -0.5000   0.5000   -1.5824101   -1.5834830    1.5828824   0
    9  299.9843746  185.6788483  227.0698416   0.5000   0.5000  -0.5000    1.5824101    1.5834830   -1.5828824   1
    9  299.4977176  186.0208900  225.3530468   0.5000   0.5000  -0.5000    1.5824101    1.5834830   -1.5828824   1
    9  298.9281109  187.9705331  224.2387708   0.5000   0.5000  -0.5000    1.5824101    1.5834830   -1.5828824   1
    9  297.4349011  189.5370673  223.4206294   0.5000   0.5000  -0.5000    1.5824101    1.5834830   -1.5828824   1
    9  295.2018218  190.3930359  222.8791213   0.5000   0.5000  -0.5000    1.5824101    1.5834830   -1.5828824   1
    9  292.8935165  190.6565015  222.2107604   0.5000   0.5000  -0.5000    1.5824101    1.5834830   -1.5828824   1
    9  291.0527726  190.4766824  220.5454668   0.5000   0.5000  -0.5000    1.5824101    1.5834830   -1.5828824   1
    9  290.4351532  189.8745153  218.7386761   0.5000   0.5000  -0.5000    1.5824101    1.5834830   -1.5828824   1
    9  290.9448771  188.6386500  217.6237488   0.5000   0.5000  -0.5000    1.5824101    1.5834830   -1.5828824   1
    9  292.1414809  186.9419019  216.7353705   0.5000   0.5000  -0.5000    1.5824101    1.5834830   -1.5828824   1
    9  294.0033918  185.2201655  216.2477796   0.5000   0.5000  -0.5000    1.5824101    1.5834830   -1.5828824   1
    9  295.7112615  184.2539679  216.8946526   0.5000   0.5000  -0.5000    1.5824101    1.5834830   -1.5828824   1
    9  297.1356321  184.1917581  218.4213352   0.5000   0.5000  -0.5000    1.5824101    1.5834830   -1.5828824   1
    9  298.5705939  184.1497087  220.0851659   0.5000   0.5000  -0.5000    1.5824101    1.5834830   -1.5828824   1
    9  299.3939965  183.7118933  221.7733429   0.5000   0.5000  -0.5000    1.5824101    1.5834830   -1.5828824   1
    9  299.7558363  184.0135003  223.4243154   0.5000   0.5000  -0.5000    1.5824101    1.5834830   -1.5828824   1
    9  300.0224833  185.0144630  225.1694831   0.5000   0.5000  -0.5000    1.5824101    1.5834830   -1.5828824   1
    9  299.9843747  185.6788485  227.0698416   0.5000   0.5000  -0.5000    1.5824101    1.5834830   -1.5828824   1
   10  184.5700715  686.8265000  317.2106429  -0.5000   0.5000  -0.5000   -1.5817815    1.5847276   -1.5814463   0
   10  182.5288120  686.3276152  316.0469842  -0.5000   0.5000  -0.5000   -1.5817815    1.5847276   -1.5814463   0
   10  181.8207745  685.2781240  314.5859530  -0.5000   0.5000  -0.5000   -1.5817815    1.5847276   -1.5814463   0
   10  181.5932215  683.7324771  312.3578318  -0.5000   0.5000  -0.5000   -1.5817815    1.5847276   -1.5814463   0
   10  181.5393146  681.8916017  310.7250711  -0.5000   0.5000  -0.5000   -1.5817815    1.5847276   -1.5814463   0
   10  182.7639343  680.6097201  310.0737694  -0.5000   0.5000  -0.5000   -1.5817815    1.5847276   -1.5814463   0
   10  185.1209954  679.7566658  309.3285123  -0.5000   0.5000  -0.5000   -1.5817815    1.5847276   -1.5814463   0
   10  187.7262526  678.7670955  308.4702053  -0.5000   0.5000  -0.5000   -1.5817815    1.5847276   -1.5814463   0
   10  188.8454841  678.6760061  308.0474703  -0.5000   0.5000  -0.5000   -1.5817815    1.5847276   -1.5814463   0
   10  188.5484926  680.1453188  307.9102340  -0.5000   0.5000  -0.5000   -1.5817815    1.5847276   -1.5814463   0
   10  188.9257680  682.6051110  307.5459867  -0.5000   0.5000  -0.5000   -1.5817815    1.5847276   -1.5814463   0
   10  189.8547706  684.8756822  307.9825018  -0.5000   0.5000  -0.5000   -1.5817815    1.5847276   -1.5814463   0
   10  190.1149713  686.0669926  309.8919405  -0.5000   0.5000  -0.5000   -1.5817815    1.5847276   -1.5814463   0
   10  189.5380246  686.7573152  311.9019676  -0.5000   0.5000  -0.5000   -1.5817815    1.5847276   -1.5814463   0
   10  188.5952342  687.6265742  313.3153658  -0.5000   0.5000  -0.5000   -1.5817815    1.5847276   -1.5814463   0
   10  187.5606428  688.8155714  314.3697143  -0.5000   0.5000  -0.5000   -1.5817815    1.5847276   -1.5814463   0
   11   22.5597787  581.1135000  350.7820715  -0.5000  -0.5000   0.5000   -1.5824101   -1.5834830    1.5828824   0
   11   24.5118142  580.4975163  349.2246360  -0.5000  -0.5000   0.5000   -1.5824101   -1.5834830    1.5828824   0
   11   25.1162579  580.0628423  347.2698632  -0.5000  -0.5000   0.5000   -1.5824101   -1.5834830    1.5828824   0
   11   25.6328078  579.4981560  344.9632441  -0.5000  -0.5000   0.5000   -1.5824101   -1.5834830    1.5828824   0
   11   27.1010434  578.6013210  343.3284836  -0.5000  -0.5000   0.5000   -1.5824101   -1.5834830    1.5828824   0
   11   28.8884121  578.0015698  342.8794021  -0.5000  -0.5000   0.5000   -1.5824101   -1.5834830    1.5828824   0
   11   30.9180174  577.5338395  343.0390576  -0.5000  -0.5000   0.5000   -1.5824101   -1.5834830    1.5828824   0
   11   33.2645299  576.7051887  343.3012329  -0.5000  -0.5000   0.5000   -1.5824101   -1.5834830    1.5828824   0
   11   35.1617753  575.7032626  343.9497730  -0.5000  -0.5000   0.5000   -1.5824101   -1.5834830    1.5828824   0
   11   36.5649168  575.3452828  345.0476021  -0.5000  -0.5000   0.5000   -1.5824101   -1.5834830    1.5828824   0
   11   38.1509771  575.6945741  346.2702625  -0.5000  -0.5000   0.5000   -1.5824101   -1.5834830    1.5828824   0
   11   39.8985421  575.4699362  347.0009535  -0.5000  -0.5000   0.5000   -1.5824101   -1.5834830    1.5828824   0
   11   41.4643703  574.3907192  346.7907681  -0.5000  -0.5000   0.5000   -1.5824101   -1.5834830    1.5828824   0
   11   43.2191110  573.2806614  346.3332976  -0.5000  -0.5000   0.5000   -1.5824101   -1.5834830    1.5828824   0
   11   45.5761106  573.2194020  346.2733007  -0.5000  -0.5000   0.5000   -1.5824101   -1.5834830    1.5828824   0
   11   48.0003435  573.8412521  346.0464311  -0.5000  -0.5000   0.5000   -1.5824101   -1.5834830    1.5828824   0
   11   49.4074962  573.4224907  345.0938808  -0.5000  -0.5000   0.5000   -1.5824101   -1.5834830    1.5828824   0
   11   49.6095473  572.2443669  343.6018287  -0.5000  -0.5000   0.5000   -1.5824101   -1.5834830    1.5828824   0
   11   49.1224775  571.4655893  341.5879512  -0.5000  -0.5000   0.5000   -1.5824101   -1.5834830    1.5828824   0
   11   48.3658833  571.0161527  339.1267186  -0.5000  -0.5000   0.5000   -1.5824101   -1.5834830    1.5828824   0
   11   48.4774379  570.3844419  337.0314591  -0.5000  -0.5000   0.5000   -1.5824101   -1.5834830    1.5828824   0
   11   50.1374997  569.8481360  335.9371961  -0.5000  -0.5000   0.5000   -1.5824101   -1.5834830    1.5828824   0
   11   52.4888451  569.9783657  335.8441900  -0.5000  -0.5000   0.5000   -1.5824101   -1.5834830    1.5828824   0
   11   54.7225883  570.5108517  336.3878258  -0.5000  -0.5000   0.5000   -1.5824101   -1.5834830    1.5828824   0
   11   56.6681476  571.1730487  337.0904145  -0.5000  -0.5000   0.5000   -1.5824101   -1.5834830    1.5828824   0
   11   58.4435016  571.4110213  337.3480142  -0.5000  -0.5000   0.5000   -1.5824101   -1.5834830    1.5828824   0
   11   60.0461943  570.7274056  336.5093449  -0.5000  -0.5000   0.5000   -1.5824101   -1.5834830    1.5828824   0
   11   60.9578793  569.6208800  335.6245460  -0.5000  -0.5000   0.5000   -1.5824101   -1.5834830    1.5828824   0
   11   61.1590500  568.3572142  335.7446428  -0.5000  -0.5000   0.5000   -1.5824101   -1.5834830    1.5828824   0
   12  309.5940575  420.1605024  544.9174569  -0.5000  -0.5000  -0.5000   -1.5816138   -1.5795618   -1.5813736   1
   12  310.0461684  421.5217844  544.0022706  -0.5000  -0.5000  -0.5000   -1.5816138   -1.5795618   -1.5813736   1
   12  311.0345429  422.8017892  542.4284538  -0.5000  -0.5000  -0.5000   -1.5816138   -1.5795618   -1.5813736   1
   12  312.1040036  424.4621784  541.1791525  -0.5000  -0.5000  -0.5000   -1.5816138   -1.5795618   -1.5813736   1
   12  312.3029295  426.3152796  540.5943587  -0.5000  -0.5000  -0.5000   -1.5816138   -1.5795618   -1.5813736   1
   12  312.0010193  427.9373302  539.8922072  -0.5000  -0.5000  -0.5000   -1.5816138   -1.5795618   -1.5813736   1