ITEM: TIMESTEP
0
ITEM: NUMBER OF ATOMS
10027
ITEM: BOX BOUNDS pp pp pp 
0.0 696.071449
0.0 696.567677
0.0 697.843982
ITEM: ATOMS id x y z tbx tby tbz sbx sby sbz loop
    0  360.1532595  670.5587651  488.7405840  -0.5000   0.5000   0.5000   -1.5831052    1.5805796    1.5824948   0
    0  358.8169417  666.9155771  486.0766054  -0.5000   0.5000   0.5000   -1.5831052    1.5805796    1.5824948   0
    0  357.9599829  664.6086469  485.8395066  -0.5000   0.5000   0.5000   -1.5831052    1.5805796    1.5824948   0
    0  357.4545868  663.3519728  487.5268441  -0.5000   0.5000   0.5000   -1.5831052    1.5805796    1.5824948   0
    0  357.5688095  662.7937131  490.4966393  -0.5000   0.5000   0.5000   -1.5831052    1.5805796    1.5824948   0
    0  357.8660326  662.4435909  493.4510650  -0.5000   0.5000   0.5000   -1.5831052    1.5805796    1.5824948   0
    0  357.6845959  661.6245346  494.9233310  -0.5000   0.5000   0.5000   -1.5831052    1.5805796    1.5824948   0
    0  356.5014960  660.9675883  495.2549208  -0.5000   0.5000   0.5000   -1.5831052    1.5805796    1.5824948   0
    0  354.3683778  660.1533567  494.8593380  -0.5000   0.5000   0.5000   -1.5831052    1.5805796    1.5824948   0
    0  352.4502219  658.5329346  494.8352518  -0.5000   0.5000   0.5000   -1.5831052    1.5805796    1.5824948   0
    0  351.2355943  657.3397657  496.2701249  -0.5000   0.5000   0.5000   -1.5831052    1.5805796    1.5824948   0
    0  350.5931832  656.8694262  498.4044826  -0.5000   0.5000   0.5000   -1.5831052    1.5805796    1.5824948   0
    0  350.2270981  655.9706504  500.3423081  -0.5000   0.5000   0.5000   -1.5831052    1.5805796    1.5824948   0
    0  349.7657236  654.8710151  502.2965997  -0.5000   0.5000   0.5000   -1.5831052    1.5805796    1.5824948   0
    0  349.1971467  653.8920015  504.2153759  -0.5000   0.5000   0.5000   -1.5831052    1.5805796    1.5824948   0
    0  348.8325167  652.6593754  505.9380201  -0.5000   0.5000   0.5000   -1.5831052    1.5805796    1.5824948   0
    0  348.4827433  651.4604337  507.7834117  -0.5000   0.5000   0.5000   -1.5831052    1.5805796    1.5824948   0
    0  347.9742902  650.6049386  509.7555188  -0.5000   0.5000   0.5000   -1.5831052    1.5805796    1.5824948   0
    0  347.6825267  650.1526973  511.8676048  -0.5000   0.5000   0.5000   -1.5831052    1.5805796    1.5824948   0
    0  347.1778833  649.3942863  513.2090369  -0.5000   0.5000   0.5000   -1.5831052    1.5805796    1.5824948   0
    0  346.1893965  647.8880772  513.0512835  -0.5000   0.5000   0.5000   -1.5831052    1.5805796    1.5824948   0
    0  345.3240757  647.2018822  513.2798796  -0.5000   0.5000   0.5000   -1.5831052    1.5805796    1.5824948   0
    0  345.4078705  647.7233174  514.7713975  -0.5000   0.5000   0.5000   -1.5831052    1.5805796    1.5824948   0
    0  346.2854809  647.9519067  516.2109112  -0.5000   0.5000   0.5000   -1.5831052    1.5805796    1.5824948   0
    0  346.8603443  647.9600349  517.4325094  -0.5000   0.5000   0.5000   -1.5831052    1.5805796    1.5824948   0
    0  347.0753617  648.0563771  519.2003368  -0.5000   0.5000   0.5000   -1.5831052    1.5805796    1.5824948   0
    0  347.3950318  647.8521997  521.9385753  -0.5000   0.5000   0.5000   -1.5831052    1.5805796    1.5824948   0
    0  347.2306148  647.4041222  524.6452742  -0.5000   0.5000   0.5000   -1.5831052    1.5805796    1.5824948   0
    0  346.3376341  646.7044086  526.7133231  -0.5000   0.5000   0.5000   -1.5831052    1.5805796    1.5824948   0
    0  345.8653585  646.2190104  529.1575254  -0.5000   0.5000   0.5000   -1.5831052    1.5805796    1.5824948   0
    0  346.1727235  645.9269965  531.7869307  -0.5000   0.5000   0.5000   -1.5831052    1.5805796    1.5824948   0
    0  346.5095395  645.4158651  534.6754970  -0.5000   0.5000   0.5000   -1.5831052    1.5805796    1.5824948   0
    0  346.6570702  645.3286493  538.1029644  -0.5000   0.5000   0.5000   -1.5831052    1.5805796    1.5824948   0
    0  347.3141691  645.1444976  540.6269467  -0.5000   0.5000   0.5000   -1.5831052    1.5805796    1.5824948   0
    0  348.6655396  644.7928876  541.5943294  -0.5000   0.5000   0.5000   -1.5831052    1.5805796    1.5824948   0
    0  349.4041724  645.6288868  542.3076050  -0.5000   0.5000   0.5000   -1.5831052    1.5805796    1.5824948   0
    0  349.4387736  646.6802052  543.9793047  -0.5000   0.5000   0.5000   -1.5831052    1.5805796    1.5824948   0
    0  349.7599119  646.6308343  545.9100198  -0.5000   0.5000   0.5000   -1.5831052    1.5805796    1.5824948   0
    0  349.5114416  646.3030334  547.5021775  -0.5000   0.5000   0.5000   -1.5831052    1.5805796    1.5824948   0
    0  348.5279952  646.0112434  549.1218626  -0.5000   0.5000   0.5000   -1.5831052    1.5805796    1.5824948   0
    0  347.9749628  645.3804606  550.8643760  -0.5000   0.5000   0.5000   -1.5831052    1.5805796    1.5824948   0
    0  347.4720846  644.8742252  552.7035507  -0.5000   0.5000   0.5000   -1.5831052    1.5805796    1.5824948   0
    0  346.1885521  644.9315554  554.5295828  -0.5000   0.5000   0.5000   -1.5831052    1.5805796    1.5824948   0
    0  344.5276999  645.8844773  556.2390432  -0.5000   0.5000   0.5000   -1.5831052    1.5805796    1.5824948   0
    0  344.0816049  646.7425544  558.0344258  -0.5000   0.5000   0.5000   -1.5831052    1.5805796    1.5824948   0
    0  345.0972963  646.6504955  560.0850073  -0.5000   0.5000   0.5000   -1.5831052    1.5805796    1.5824948   0
    0  345.9328627  646.9143793  561.1762229  -0.5000   0.5000   0.5000   -1.5831052    1.5805796    1.5824948   0
    0  345.8098974  647.1110336  560.0426493  -0.5000   0.5000   0.5000   -1.5831052    1.5805796    1.5824948   0
    0  344.9670931  645.7335774  557.6388492  -0.5000   0.5000   0.5000   -1.5831052    1.5805796    1.5824948   0
    0  343.8607860  644.2969129  555.6860158  -0.5000   0.5000   0.5000   -1.5831052    1.5805796    1.5824948   0
    0  342.6544692  644.1500954  554.1459013  -0.5000   0.5000   0.5000   -1.5831052    1.5805796    1.5824948   0
    0  341.0096584  644.4247568  552.1441811  -0.5000   0.5000   0.5000   -1.5831052    1.5805796    1.5824948   0
    0  339.1012633  644.4339933  550.3417089  -0.5000   0.5000   0.5000   -1.5831052    1.5805796    1.5824948   0
    0  337.5339210  644.2382845  549.9161966  -0.5000   0.5000   0.5000   -1.5831052    1.5805796    1.5824948   0
    0  336.1382114  643.8248770  550.2933219  -0.5000   0.5000   0.5000   -1.5831052    1.5805796    1.5824948   0
    0  334.4649135  642.7351555  550.0902735  -0.5000   0.5000   0.5000   -1.5831052    1.5805796    1.5824948   0
    0  332.5044616  641.7487570  549.4934529  -0.5000   0.5000   0.5000   -1.5831052    1.5805796    1.5824948   0
    0  330.5768710  641.6245415  549.6210643  -0.5000   0.5000   0.5000   -1.5831052    1.5805796    1.5824948   0
    0  329.2630132  641.7889579  550.2477487  -0.5000   0.5000   0.5000   -1.5831052    1.5805796    1.5824948   0
    0  328.6607604  641.8256235  549.9640734  -0.5000   0.5000   0.5000   -1.5831052    1.5805796    1.5824948   0
    0  328.0976427  641.7103571  548.7719285  -0.5000   0.5000   0.5000   -1.5831052    1.5805796    1.5824948   0
    1  569.0335444  617.2911333  604.5141889  -0.5000   0.5000  -0.5000   -1.5823266    1.5840963   -1.5818538   0
    1  570.0557418  616.5518123  602.2971526  -0.5000   0.5000  -0.5000   -1.5823266    1.5840963   -1.5818538   0
    1  570.8772704  616.8779001  600.1223807  -0.5000   0.5000  -0.5000   -1.5823266    1.5840963   -1.5818538   0
    1  572.0204393  618.3040954  598.9690092  -0.5000   0.5000  -0.5000   -1.5823266    1.5840963   -1.5818538   0
    1  572.9725042  620.1538554  599.1291765  -0.5000   0.5000  -0.5000   -1.5823266    1.5840963   -1.5818538   0
    1  573.6645607  621.2416909  600.3493656  -0.5000   0.5000  -0.5000   -1.5823266    1.5840963   -1.5818538   0
    1  574.1990337  621.9915910  601.9778833  -0.5000   0.5000  -0.5000   -1.5823266    1.5840963   -1.5818538   0
    1  574.1309286  623.2481905  603.6757321  -0.5000   0.5000  -0.5000   -1.5823266    1.5840963   -1.5818538   0
    2  590.2066379  613.5024712  552.8137420   0.5000  -0.5000  -0.5000    1.5831052   -1.5805796   -1.5824948   0
    2  593.1066894  615.3888348  554.0311693   0.5000  -0.5000  -0.5000    1.5831052   -1.5805796   -1.5824948   0
    2  594.3707533  616.8812747  555.2177842   0.5000  -0.5000  -0.5000    1.5831052   -1.5805796   -1.5824948   0
    2  595.1181324  617.7467295  556.9415093   0.5000  -0.5000  -0.5000    1.5831052   -1.5805796   -1.5824948   0
    2  595.9478383  618.4073624  559.5506259   0.5000  -0.5000  -0.5000    1.5831052   -1.5805796   -1.5824948   0
    2  596.7364791  618.9819891  561.9435321   0.5000  -0.5000  -0.5000    1.5831052   -1.5805796   -1.5824948   0
    2  597.1376676  619.0967065  564.1818988   0.5000  -0.5000  -0.5000    1.5831052   -1.5805796   -1.5824948   0
    2  596.8856478  619.1923023  567.0364183   0.5000  -0.5000  -0.5000    1.5831052   -1.5805796   -1.5824948   0
    2  596.8881150  619.6787229  570.0241193   0.5000  -0.5000  -0.5000    1.5831052   -1.5805796   -1.5824948   0
    2  597.4871430  620.6004117  572.3585685   0.5000  -0.5000  -0.5000    1.5831052   -1.5805796   -1.5824948   0
    2  598.0602039  621.1860589  574.7297048   0.5000  -0.5000  -0.5000    1.5831052   -1.5805796   -1.5824948   0
    2  598.3812824  621.3051084  577.7007534   0.5000  -0.5000  -0.5000    1.5831052   -1.5805796   -1.5824948   0
    2  598.0531012  622.1360672  580.0012387   0.5000  -0.5000  -0.5000    1.5831052   -1.5805796   -1.5824948   0
    2  597.3430097  624.5557851  580.5547167   0.5000  -0.5000  -0.5000    1.5831052   -1.5805796   -1.5824948   0
    2  597.4987236  627.9783273  579.8672610   0.5000  -0.5000  -0.5000    1.5831052   -1.5805796   -1.5824948   0
    2  598.2079525  629.5336941  579.1593804   0.5000  -0.5000  -0.5000    1.5831052   -1.5805796   -1.5824948   0
    2  598.0834192  627.8696872  579.3389719   0.5000  -0.5000  -0.5000    1.5831052   -1.5805796   -1.5824948   0
    2  597.5405988  625.5541704  580.8623386   0.5000  -0.5000  -0.5000    1.5831052   -1.5805796   -1.5824948   0
    2  597.7267650  625.0733067  582.7393957   0.5000  -0.5000  -0.5000    1.5831052   -1.5805796   -1.5824948   0
    2  598.2857788  625.9770067  584.2183386   0.5000  -0.5000  -0.5000    1.5831052   -1.5805796   -1.5824948   0
    2  598.8946344  627.1820564  585.5043302   0.5000  -0.5000  -0.5000    1.5831052   -1.5805796   -1.5824948   0
    2  599.2733059  628.4117939  586.8941774   0.5000  -0.5000  -0.5000    1.5831052   -1.5805796   -1.5824948   0
    2  598.8471333  629.4958796  588.6254142   0.5000  -0.5000  -0.5000    1.5831052   -1.5805796   -1.5824948   0
    2  598.0448725  630.5167251  590.5630521   0.5000  -0.5000  -0.5000    1.5831052   -1.5805796   -1.5824948   0
    2  597.0650682  631.6503284  592.9812910   0.5000  -0.5000  -0.5000    1.5831052   -1.5805796   -1.5824948   0
    2  596.2571973  632.8775985  595.7943969   0.5000  -0.5000  -0.5000    1.5831052   -1.5805796   -1.5824948   0
    2  596.5467333  634.0120556  598.6936111   0.5000  -0.5000  -0.5000    1.5831052   -1.5805796   -1.5824948   0
    3  622.5638900  249.6745914   64.9156239   0.5000   0.5000   0.5000    1.5812777    1.5803057    1.5816828   1
    3  622.9291428  248.6267279   65.3351826   0.5000   0.5000   0.5000    1.5812777    1.5803057    1.5816828   1
    3  623.9197610  246.8585584   65.9359854   0.5000   0.5000   0.5000    1.5812777    1.5803057    1.5816828   1
    3  624.5306800  245.2280398   66.5831074   0.5000   0.5000   0.5000    1.5812777    1.5803057    1.5816828   1
    3  624.3768475  244.0342574   67.1518590   0.5000   0.5000   0.5000    1.5812777    1.5803057    1.5816828   1
    3  623.9359676  242.8768190   67.3418118   0.5000   0.5000   0.5000    1.5812777    1.5803057    1.5816828   1
    3  623.7069700  241.3546488   67.3702124   0.5000   0.5000   0.5000    1.5812777    1.5803057    1.5816828   1
    3  623.7051809  239.9428905   68.7774504   0.5000   0.5000   0.5000    1.5812777    1.5803057    1.5816828   1
    3  623.7057686  239.2512109   71.6319992   0.5000   0.5000   0.5000    1.5812777    1.5803057    1.5816828   1
    3  623.9887023  238.5676335   74.0755656   0.5000   0.5000   0.5000    1.5812777    1.5803057    1.5816828   1
    3  624.3831056  237.3667025   75.9037917   0.5000   0.5000   0.5000    1.5812777    1.5803057    1.5816828   1
    3  624.4772665  235.8074259   77.4795395   0.5000   0.5000   0.5000    1.5812777    1.5803057    1.5816828   1
    3  624.6424254  234.3247994   79.1924181   0.5000   0.5000   0.5000    1.5812777    1.5803057    1.5816828   1
    3  624.2893594  233.8954434   81.4230676   0.5000   0.5000   0.5000    1.5812777    1.5803057    1.5816828   1
    3  622.9390464  234.7689702   82.8780000   0.5000   0.5000   0.5000    1.5812777    1.5803057    1.5816828   1
    3  621.6585545  236.6295567   83.3864823   0.5000   0.5000   0.5000    1.5812777    1.5803057    1.5816828   1
    3  620.6735312  238.5136624   83.6835865   0.5000   0.5000   0.5000    1.5812777    1.5803057    1.5816828   1
    3  619.2894623  239.4515929   83.9743826   0.5000   0.5000   0.5000    1.5812777    1.5803057    1.5816828   1
    3  617.6135728  239.7512089   85.4439967   0.5000   0.5000   0.5000    1.5812777    1.5803057    1.5816828   1
    3  616.7518456  240.7505707   87.6589310   0.5000   0.5000   0.5000    1.5812777    1.5803057    1.5816828   1
    3  616.8090675  242.9146799   88.8074114   0.5000   0.5000   0.5000    1.5812777    1.5803057    1.5816828   1
    3  616.2125633  244.3617423   89.3420569   0.5000   0.5000   0.5000    1.5812777    1.5803057    1.5816828   1
    3  614.7931824  244.2940849   90.1326034   0.5000   0.5000   0.5000    1.5812777    1.5803057    1.5816828   1
    3  613.4869920  244.1056145   91.1862178   0.5000   0.5000   0.5000    1.5812777    1.5803057    1.5816828   1
    3  612.5812172  244.3638597   92.9963291   0.5000   0.5000   0.5000    1.5812777    1.5803057    1.5816828   1
    3  611.7995525  245.2579116   95.0642335   0.5000   0.5000   0.5000    1.5812777    1.5803057    1.5816828   1
    3  610.9121879  246.8264306   95.5937692   0.5000   0.5000   0.5000    1.5812777    1.5803057    1.5816828   1
    3  610.3577185  248.5505543   94.5703456   0.5000   0.5000   0.5000    1.5812777    1.5803057    1.5816828   1
    3  610.2013073  250.1544156   93.0240962   0.5000   0.5000   0.5000    1.5812777    1.5803057    1.5816828   1
    3  609.8415116  251.3037040   91.3660738   0.5000   0.5000   0.5000    1.5812777    1.5803057    1.5816828   1
    3  609.2989360  252.1396851   89.7694109   0.5000   0.5000   0.5000    1.5812777    1.5803057    1.5816828   1
    3  609.1293280  253.4316068   88.1576823   0.5000   0.5000   0.5000    1.5812777    1.5803057    1.5816828   1
    3  609.2067484  255.1531084   86.4492668   0.5000   0.5000   0.5000    1.5812777    1.5803057    1.5816828   1
    3  609.4056631  256.2357320   84.2731801   0.5000   0.5000   0.5000    1.5812777    1.5803057    1.5816828   1
    3  609.9668552  256.5162101   81.9400910   0.5000   0.5000   0.5000    1.5812777    1.5803057    1.5816828   1
    3  610.8067695  257.0692826   80.1277686   0.5000   0.5000   0.5000    1.5812777    1.5803057    1.5816828   1
    3  611.5207626  258.3785807   78.8112065   0.5000   0.5000   0.5000    1.5812777    1.5803057    1.5816828   1
    3  611.6057106  259.7672263   77.3984139   0.5000   0.5000   0.5000    1.5812777    1.5803057    1.5816828   1
    3  611.1419926  260.7631253   75.3393936   0.5000   0.5000   0.5000    1.5812777    1.5803057    1.5816828   1
    3  610.5371222  261.7278319   73.2044677   0.5000   0.5000   0.5000    1.5812777    1.5803057    1.5816828   1
    3  609.7597369  262.7626614   71.6371703   0.5000   0.5000   0.5000    1.5812777    1.5803057    1.5816828   1
    3  609.3379082  263.3408195   70.0437263   0.5000   0.5000   0.5000    1.5812777    1.5803057    1.5816828   1
    3  609.6170608  263.1544538   67.3887697   0.5000   0.5000   0.5000    1.5812777    1.5803057    1.5816828   1
    3  610.4128912  262.5459575   64.4733059   0.5000   0.5000   0.5000    1.5812777    1.5803057    1.5816828   1
    3  610.9246490  261.7979048   62.8133233   0.5000   0.5000   0.5000    1.5812777    1.5803057    1.5816828   1
    3  611.2991189  261.0733921   62.2067008   0.5000   0.5000   0.5000    1.5812777    1.5803057    1.5816828   1
    3  613.1550986  260.2210675   62.2618229   0.5000   0.5000   0.5000    1.5812777    1.5803057    1.5816828   1
    3  615.5158107  258.8442574   62.4201996   0.5000   0.5000   0.5000    1.5812777    1.5803057    1.5816828   1
    3  617.1399907  257.0631219   62.2101257   0.5000   0.5000   0.5000    1.5812777    1.5803057    1.5816828   1
    3  618.3605305  254.8149082   62.1745932   0.5000   0.5000   0.5000    1.5812777    1.5803057    1.5816828   1
    3  619.4696395  252.4837013   62.4698627   0.5000   0.5000   0.5000    1.5812777    1.5803057    1.5816828   1
    3  620.4971774  251.0642054   62.9327214   0.5000   0.5000   0.5000    1.5812777    1.5803057    1.5816828   1
    3  621.3666756  250.4632160   63.4895060   0.5000   0.5000   0.5000    1.5812777    1.5803057    1.5816828   1
    3  622.0120715  250.1670692   64.0129377   0.5000   0.5000   0.5000    1.5812777    1.5803057    1.5816828   1
    3  622.5638900  249.6745914   64.9156239   0.5000   0.5000   0.5000    1.5812777    1.5803057    1.5816828   1
    4  193.3490120  127.0397665  619.1812222  -0.5000   0.5000  -0.5000   -1.5823266    1.5840963   -1.5818538   1
    4  196.9420714  127.0008953  619.2236014  -0.5000   0.5000  -0.5000   -1.5823266    1.5840963   -1.5818538   1
    4  199.2818729  126.8524734  618.1890484  -0.5000   0.5000  -0.5000   -1.5823266    1.5840963   -1.5818538   1
    4  200.3893941  126.1856084  616.1745495  -0.5000   0.5000  -0.5000   -1.5823266    1.5840963   -1.5818538   1
    4  201.6816984  124.8273784  614.5374059  -0.5000   0.5000  -0.5000   -1.5823266    1.5840963   -1.5818538   1
    4  203.0141235  123.2925154  613.1992142  -0.5000   0.5000  -0.5000   -1.5823266    1.5840963   -1.5818538   1
    4  203.6040678  121.6088444  611.1415004  -0.5000   0.5000  -0.5000   -1.5823266    1.5840963   -1.5818538   1
    4  203.6331641  120.2498585  608.7325880  -0.5000   0.5000  -0.5000   -1.5823266    1.5840963   -1.5818538   1
    4  204.0887877  119.4150473  606.7613338  -0.5000   0.5000  -0.5000   -1.5823266    1.5840963   -1.5818538   1
    4  204.7837741  118.6299125  604.8645091  -0.5000   0.5000  -0.5000   -1.5823266    1.5840963   -1.5818538   1
    4  205.5503031  118.3288274  602.7278615  -0.5000   0.5000  -0.5000   -1.5823266    1.5840963   -1.5818538   1
    4  206.9260426  118.7277451  601.1717336  -0.5000   0.5000  -0.5000   -1.5823266    1.5840963   -1.5818538   1
    4  208.7372324  119.4189777  600.3975425  -0.5000   0.5000  -0.5000   -1.5823266    1.5840963   -1.5818538   1
    4  210.3069339  120.7053573  600.0513861  -0.5000   0.5000  -0.5000   -1.5823266    1.5840963   -1.5818538   1
    4  211.2489253  122.8741381  599.5769575  -0.5000   0.5000  -0.5000   -1.5823266    1.5840963   -1.5818538   1
    4  212.4947984  125.2433727  598.9377771  -0.5000   0.5000  -0.5000   -1.5823266    1.5840963   -1.5818538   1
    4  214.3095733  127.3193386  598.6817625  -0.5000   0.5000  -0.5000   -1.5823266    1.5840963   -1.5818538   1
    4  215.6483537  129.4744174  598.5599182  -0.5000   0.5000  -0.5000   -1.5823266    1.5840963   -1.5818538   1
    4  216.2441377  131.8798819  599.2977153  -0.5000   0.5000  -0.5000   -1.5823266    1.5840963   -1.5818538   1
    4  217.3929015  132.9996292  600.9130990  -0.5000   0.5000  -0.5000   -1.5823266    1.5840963   -1.5818538   1
    4  219.0935129  132.8037427  601.9889416  -0.5000   0.5000  -0.5000   -1.5823266    1.5840963   -1.5818538   1
    4  218.4826195  133.1461087  602.5081597  -0.5000   0.5000  -0.5000   -1.5823266    1.5840963   -1.5818538   1
    4  215.9356258  134.0456561  603.1428112  -0.5000   0.5000  -0.5000   -1.5823266    1.5840963   -1.5818538   1
    4  214.2382161  135.0523536  604.6026150  -0.5000   0.5000  -0.5000   -1.5823266    1.5840963   -1.5818538   1
    4  213.4837129  136.3459953  606.5553885  -0.5000   0.5000  -0.5000   -1.5823266    1.5840963   -1.5818538   1
    4  213.0895157  137.5692899  608.5553575  -0.5000   0.5000  -0.5000   -1.5823266    1.5840963   -1.5818538   1
    4  212.8138428  138.3268759  610.9348832  -0.5000   0.5000  -0.5000   -1.5823266    1.5840963   -1.5818538   1
    4  211.6438244  138.5021845  612.5414278  -0.5000   0.5000  -0.5000   -1.5823266    1.5840963   -1.5818538   1
    4  209.6408880  137.6604340  613.0025834  -0.5000   0.5000  -0.5000   -1.5823266    1.5840963   -1.5818538   1
    4  208.2269857  136.2361193  613.7736482  -0.5000   0.5000  -0.5000   -1.5823266    1.5840963   -1.5818538   1
    4  207.1131578  135.1333270  615.1457850  -0.5000   0.5000  -0.5000   -1.5823266    1.5840963   -1.5818538   1
    4  205.4796569  134.3032542  616.4455995  -0.5000   0.5000  -0.5000   -1.5823266    1.5840963   -1.5818538   1
    4  203.6008367  133.6229568  617.4845130  -0.5000   0.5000  -0.5000   -1.5823266    1.5840963   -1.5818538   1
    4  201.7553677  132.9231568  618.4232641  -0.5000   0.5000  -0.5000   -1.5823266    1.5840963   -1.5818538   1
    4  200.1531138  131.8903878  619.3405518  -0.5000   0.5000  -0.5000   -1.5823266    1.5840963   -1.5818538   1
    4  198.6034801  130.6226706  619.8699817  -0.5000   0.5000  -0.5000   -1.5823266    1.5840963   -1.5818538   1
    4  197.0821635  128.9721936  619.5770560  -0.5000   0.5000  -0.5000   -1.5823266    1.5840963   -1.5818538   1
    4  195.7641138  127.3566808  619.0494066  -0.5000   0.5000  -0.5000   -1.5823266    1.5840963   -1.5818538   1
    4  194.2316913  126.8054387  618.9280624  -0.5000   0.5000  -0.5000   -1.5823266    1.5840963   -1.5818538   1
    4  193.3490119  127.0397665  619.1812224  -0.5000   0.5000  -0.5000   -1.5823266    1.5840963   -1.5818538   1
    5  282.0704444  549.3468888  178.7580056  -0.5000  -0.5000   0.5000   -1.5820562   -1.5838224    1.5826659   0
    5  281.8561577  550.9875106  181.8663557  -0.5000  -0.5000   0.5000   -1.5820562   -1.5838224    1.5826659   0
    5  282.6489061  552.1562069  184.2042274  -0.5000  -0.5000   0.5000   -1.5820562   -1.5838224    1.5826659   0
    5  284.3887960  552.7355980  185.5387322  -0.5000  -0.5000   0.5000   -1.5820562   -1.5838224    1.5826659   0
    5  286.2143181  552.5690093  186.5732659  -0.5000  -0.5000   0.5000   -1.5820562   -1.5838224    1.5826659   0
    5  287.6736395  552.1351842  188.1001653  -0.5000  -0.5000   0.5000   -1.5820562   -1.5838224    1.5826659   0
    5  288.7068957  552.0354302  189.7929034  -0.5000  -0.5000   0.5000   -1.5820562   -1.5838224    1.5826659   0
    5  289.3976807  552.6087226  191.1259258  -0.5000  -0.5000   0.5000   -1.5820562   -1.5838224    1.5826659   0
    5  289.8804192  553.8560606  191.8769789  -0.5000  -0.5000   0.5000   -1.5820562   -1.5838224    1.5826659   0
    5  289.8286927  555.1699409  192.5709905  -0.5000  -0.5000   0.5000   -1.5820562   -1.5838224    1.5826659   0
    5  289.9922143  556.5564285  194.0132856  -0.5000  -0.5000   0.5000   -1.5820562   -1.5838224    1.5826659   0
    6  113.0580000  518.7161111  252.0822083  -0.5000  -0.5000   0.5000   -1.5820562   -1.5838224    1.5826659   0
    6  115.9546832  520.0424106  254.7507226  -0.5000  -0.5000   0.5000   -1.5820562   -1.5838224    1.5826659   0
    6  117.6849360  521.6330356  255.5387367  -0.5000  -0.5000   0.5000   -1.5820562   -1.5838224    1.5826659   0
    6  119.0839827  521.6399858  256.0637729  -0.5000  -0.5000   0.5000   -1.5820562   -1.5838224    1.5826659   0
    6  120.6921374  520.5934746  257.2024804  -0.5000  -0.5000   0.5000   -1.5820562   -1.5838224    1.5826659   0
    6  122.5557978  519.4463590  257.8890158  -0.5000  -0.5000   0.5000   -1.5820562   -1.5838224    1.5826659   0
    6  124.3164301  517.8088762  257.6581733  -0.5000  -0.5000   0.5000   -1.5820562   -1.5838224    1.5826659   0
    6  124.7921729  516.0745588  256.4000610  -0.5000  -0.5000   0.5000   -1.5820562   -1.5838224    1.5826659   0
    6  123.6821607  515.2043843  254.5857686  -0.5000  -0.5000   0.5000   -1.5820562   -1.5838224    1.5826659   0
    6  121.8440230  515.2492164  253.2122803  -0.5000  -0.5000   0.5000   -1.5820562   -1.5838224    1.5826659   0
    6  120.1199087  516.0653887  252.5318418  -0.5000  -0.5000   0.5000   -1.5820562   -1.5838224    1.5826659   0
    6  118.6861478  517.5460800  252.1385003  -0.5000  -0.5000   0.5000   -1.5820562   -1.5838224    1.5826659   0
    6  117.5419457  518.7469173  251.1134870  -0.5000  -0.5000   0.5000   -1.5820562   -1.5838224    1.5826659   0
    6  115.8782971  519.0010971  250.5027181  -0.5000  -0.5000   0.5000   -1.5820562   -1.5838224    1.5826659   0
    6  113.0580000  518.7161111  252.0822083  -0.5000  -0.5000   0.5000   -1.5820562   -1.5838224    1.5826659   0
    7   93.3141026  663.8332925  412.3185663  -0.5000  -0.5000   0.5000   -1.5820562   -1.5838224    1.5826659   1
    7   92.7397838  662.9315106  411.2420690  -0.5000  -0.5000   0.5000   -1.5820562   -1.5838224    1.5826659   1
    7   91.6839383  661.8425036  409.8097223  -0.5000  -0.5000   0.5000   -1.5820562   -1.5838224    1.5826659   1
    7   90.1745585  662.4750118  409.0205899  -0.5000  -0.5000   0.5000   -1.5820562   -1.5838224    1.5826659   1
    7   88.7488293  664.2164701  408.3599151  -0.5000  -0.5000   0.5000   -1.5820562   -1.5838224    1.5826659   1
    7   87.4340014  666.0363073  408.1354126  -0.5000  -0.5000   0.5000   -1.5820562   -1.5838224    1.5826659   1
    7   85.5142488  667.1486056  407.9622229  -0.5000  -0.5000   0.5000   -1.5820562   -1.5838224    1.5826659   1
    7   83.2009377  667.6312821  408.0007795  -0.5000  -0.5000   0.5000   -1.5820562   -1.5838224    1.5826659   1
    7   81.2165005  668.5503014  408.5347258  -0.5000  -0.5000   0.5000   -1.5820562   -1.5838224    1.5826659   1
    7   79.3419085  669.7815909  409.3078125  -0.5000  -0.5000   0.5000   -1.5820562   -1.5838224    1.5826659   1
    7   78.0197967  670.9139332  410.5930212  -0.5000  -0.5000   0.5000   -1.5820562   -1.5838224    1.5826659   1
    7   77.5397301  672.2293968  412.0034621  -0.5000  -0.5000   0.5000   -1.5820562   -1.5838224    1.5826659   1
    7   77.6241170  673.6429209  413.2089999  -0.5000  -0.5000   0.5000   -1.5820562   -1.5838224    1.5826659   1
    7   78.3352998  674.7757463  414.5404556  -0.5000  -0.5000   0.5000   -1.5820562   -1.5838224    1.5826659   1
    7   79.7098631  675.3674287  416.1093254  -0.5000  -0.5000   0.5000   -1.5820562   -1.5838224    1.5826659   1
    7   81.5511437  675.3461269  417.6183845  -0.5000  -0.5000   0.5000   -1.5820562   -1.5838224    1.5826659   1
    7   83.5978263  675.0645492  418.4887563  -0.5000  -0.5000   0.5000   -1.5820562   -1.5838224    1.5826659   1
    7   85.9724856  674.6232939  418.7485543  -0.5000  -0.5000   0.5000   -1.5820562   -1.5838224    1.5826659   1
    7   88.1443288  673.3079362  418.9921754  -0.5000  -0.5000   0.5000   -1.5820562   -1.5838224    1.5826659   1
    7   89.5255881  671.5301360  418.7249173  -0.5000  -0.5000   0.5000   -1.5820562   -1.5838224    1.5826659   1
    7   90.5077822  670.2776057  417.7130687  -0.5000  -0.5000   0.5000   -1.5820562   -1.5838224    1.5826659   1
    7   91.2570663  669.0997922  416.8311937  -0.5000  -0.5000   0.5000   -1.5820562   -1.5838224    1.5826659   1
    7   91.4546956  667.5398234  415.8038711  -0.5000  -0.5000   0.5000   -1.5820562   -1.5838224    1.5826659   1
    7   91.9258011  665.9666837  414.4044924  -0.5000  -0.5000   0.5000   -1.5820562   -1.5838224    1.5826659   1
    7   93.3141027  663.8332925  412.3185664  -0.5000  -0.5000   0.5000   -1.5820562   -1.5838224    1.5826659   1
    8  121.0685313  368.6953779  686.1603207  -0.5000   0.5000  -0.5000   -1.5823266    1.5840963   -1.5818538   1
    8  119.7823833  369.3908499  686.3514461  -0.5000   0.5000  -0.5000   -1.5823266    1.5840963   -1.5818538   1
    8  118.0256953  370.1523087  687.9815819  -0.5000   0.5000  -0.5000   -1.5823266    1.5840963   -1.5818538   1
    8  116.4638061  370.6599518  690.0359755  -0.5000   0.5000  -0.5000   -1.5823266    1.5840963   -1.5818538   1
    8  114.9353685  370.0170031  691.3051101  -0.5000   0.5000  -0.5000   -1.5823266    1.5840963   -1.5818538   1
    8  113.5983311  368.8270108  692.2580773  -0.5000   0.5000  -0.5000   -1.5823266    1.5840963   -1.5818538   1
    8  112.6650557  368.1167324  693.7132512  -0.5000   0.5000  -0.5000   -1.5823266    1.5840963   -1.5818538   1
    8  112.3649158  368.5932422  695.6234116  -0.5000   0.5000  -0.5000   -1.5823266    1.5840963   -1.5818538   1
    8  112.3934509  369.1981078  696.9289837  -0.5000   0.5000  -0.5000   -1.5823266    1.5840963   -1.5818538   1
    8  111.7476943  368.3342966  696.0347710  -0.5000   0.5000  -0.5000   -1.5823266    1.5840963   -1.5818538   1
    8  110.9231910  367.0662261  693.8036058  -0.5000   0.5000  -0.5000   -1.5823266    1.5840963   -1.5818538   1
    8  110.4286530  365.7243656  691.9588711  -0.5000   0.5000  -0.5000   -1.5823266    1.5840963   -1.5818538   1
    8  110.1022633  363.8746435  690.1608692  -0.5000   0.5000  -0.5000   -1.5823266    1.5840963   -1.5818538   1
    8  110.4599879  362.5685458  688.2493291  -0.5000   0.5000  -0.5000   -1.5823266    1.5840963   -1.5818538   1
    8  111.9918030  361.9622243  686.8933962  -0.5000   0.5000  -0.5000   -1.5823266    1.5840963   -1.5818538   1
    8  113.7566075  361.1386415  685.5861042  -0.5000   0.5000  -0.5000   -1.5823266    1.5840963   -1.5818538   1
    8  114.7854176  360.4838229  684.6809987  -0.5000   0.5000  -0.5000   -1.5823266    1.5840963   -1.5818538   1