ITEM: TIMESTEP
0
ITEM: NUMBER OF ATOMS
12166
ITEM: BOX BOUNDS pp pp pp 
0.0 696.713116
0.0 696.571090
0.0 697.041027
ITEM: ATOMS id x y z tbx tby tbz sbx sby sbz loop
    0  647.9741957  115.7065492  616.2009979  -0.5000   0.5000   0.5000   -1.5822311    1.5813595    1.5824441   0
    0  645.9021739  115.3792317  619.2810541  -0.5000   0.5000   0.5000   -1.5822311    1.5813595    1.5824441   0
    0  644.1216937  114.6855024  620.9857136  -0.5000   0.5000   0.5000   -1.5822311    1.5813595    1.5824441   0
    0  642.4819639  113.2524437  621.2902226  -0.5000   0.5000   0.5000   -1.5822311    1.5813595    1.5824441   0
    0  640.6188243  111.7327262  621.6226527  -0.5000   0.5000   0.5000   -1.5822311    1.5813595    1.5824441   0
    0  639.1992413  110.3175328  622.5193355  -0.5000   0.5000   0.5000   -1.5822311    1.5813595    1.5824441   0
    0  638.2757495  108.8205246  623.5140568  -0.5000   0.5000   0.5000   -1.5822311    1.5813595    1.5824441   0
    0  637.1059685  107.1019931  624.3356875  -0.5000   0.5000   0.5000   -1.5822311    1.5813595    1.5824441   0
    0  635.7997356  104.9238893  624.4103989  -0.5000   0.5000   0.5000   -1.5822311    1.5813595    1.5824441   0
    0  634.5147540  103.5068505  623.7315671  -0.5000   0.5000   0.5000   -1.5822311    1.5813595    1.5824441   0
    0  632.9510334  103.5427250  622.4953619  -0.5000   0.5000   0.5000   -1.5822311    1.5813595    1.5824441   0
    0  631.6604477  103.2121321  620.9935579  -0.5000   0.5000   0.5000   -1.5822311    1.5813595    1.5824441   0
    0  630.9710003  102.2454937  619.4043193  -0.5000   0.5000   0.5000   -1.5822311    1.5813595    1.5824441   0
    0  630.1657395  101.4698893  617.4892441  -0.5000   0.5000   0.5000   -1.5822311    1.5813595    1.5824441   0
    0  629.0699517  100.4158543  615.6696616  -0.5000   0.5000   0.5000   -1.5822311    1.5813595    1.5824441   0
    0  628.1324554   98.9065493  613.9298096  -0.5000   0.5000   0.5000   -1.5822311    1.5813595    1.5824441   0
    0  627.6603284   96.9490275  612.3771672  -0.5000   0.5000   0.5000   -1.5822311    1.5813595    1.5824441   0
    0  627.6580032   94.2447197  611.7395065  -0.5000   0.5000   0.5000   -1.5822311    1.5813595    1.5824441   0
    0  627.6834037   91.2222363  611.3902929  -0.5000   0.5000   0.5000   -1.5822311    1.5813595    1.5824441   0
    0  627.7202016   88.8563568  610.5122233  -0.5000   0.5000   0.5000   -1.5822311    1.5813595    1.5824441   0
    0  628.3386323   87.0973463  610.0764292  -0.5000   0.5000   0.5000   -1.5822311    1.5813595    1.5824441   0
    0  629.4898955   85.7292331  610.9270730  -0.5000   0.5000   0.5000   -1.5822311    1.5813595    1.5824441   0
    0  630.6035453   84.4833010  612.4311708  -0.5000   0.5000   0.5000   -1.5822311    1.5813595    1.5824441   0
    0  631.0545688   82.9703426  613.8483898  -0.5000   0.5000   0.5000   -1.5822311    1.5813595    1.5824441   0
    0  631.0224443   81.2053536  614.8495305  -0.5000   0.5000   0.5000   -1.5822311    1.5813595    1.5824441   0
    0  631.5346546   79.1388162  615.4875997  -0.5000   0.5000   0.5000   -1.5822311    1.5813595    1.5824441   0
    0  632.2953245   76.7234477  616.1989366  -0.5000   0.5000   0.5000   -1.5822311    1.5813595    1.5824441   0
    0  633.0223360   74.4842202  617.0265392  -0.5000   0.5000   0.5000   -1.5822311    1.5813595    1.5824441   0
    0  634.7522789   73.4073082  617.2244177  -0.5000   0.5000   0.5000   -1.5822311    1.5813595    1.5824441   0
    0  636.7430455   73.8416085  616.5342372  -0.5000   0.5000   0.5000   -1.5822311    1.5813595    1.5824441   0
    0  637.8487018   75.2032797  616.0970366  -0.5000   0.5000   0.5000   -1.5822311    1.5813595    1.5824441   0
    0  639.1938712   76.2158394  616.4135348  -0.5000   0.5000   0.5000   -1.5822311    1.5813595    1.5824441   0
    0  641.4446268   76.4860882  616.8147020  -0.5000   0.5000   0.5000   -1.5822311    1.5813595    1.5824441   0
    0  643.3462699   76.1874493  617.7034542  -0.5000   0.5000   0.5000   -1.5822311    1.5813595    1.5824441   0
    0  644.3011651   75.1735711  619.4076529  -0.5000   0.5000   0.5000   -1.5822311    1.5813595    1.5824441   0
    0  645.0073719   73.5406158  620.8312345  -0.5000   0.5000   0.5000   -1.5822311    1.5813595    1.5824441   0
    0  646.4466493   72.0573763  621.3987034  -0.5000   0.5000   0.5000   -1.5822311    1.5813595    1.5824441   0
    0  649.2817965   71.5660259  621.3876208  -0.5000   0.5000   0.5000   -1.5822311    1.5813595    1.5824441   0
    0  652.3125021   71.6540563  621.5792100  -0.5000   0.5000   0.5000   -1.5822311    1.5813595    1.5824441   0
    0  654.1069442   71.6576656  623.0502838  -0.5000   0.5000   0.5000   -1.5822311    1.5813595    1.5824441   0
    0  654.9936209   71.2911257  625.4272558  -0.5000   0.5000   0.5000   -1.5822311    1.5813595    1.5824441   0
    0  656.0301263   70.2325294  627.3688734  -0.5000   0.5000   0.5000   -1.5822311    1.5813595    1.5824441   0
    0  657.3325277   68.3920154  628.7086353  -0.5000   0.5000   0.5000   -1.5822311    1.5813595    1.5824441   0
    0  657.7975984   66.5122358  630.2937751  -0.5000   0.5000   0.5000   -1.5822311    1.5813595    1.5824441   0
    0  656.9546678   65.7713214  632.1435543  -0.5000   0.5000   0.5000   -1.5822311    1.5813595    1.5824441   0
    0  655.8211548   66.5195189  632.9100800  -0.5000   0.5000   0.5000   -1.5822311    1.5813595    1.5824441   0
    0  655.9139225   68.3378261  632.0851217  -0.5000   0.5000   0.5000   -1.5822311    1.5813595    1.5824441   0
    0  657.1686245   70.3251945  630.8405564  -0.5000   0.5000   0.5000   -1.5822311    1.5813595    1.5824441   0
    0  658.4883092   71.3750873  629.8956434  -0.5000   0.5000   0.5000   -1.5822311    1.5813595    1.5824441   0
    0  660.2269269   72.0051636  629.2893014  -0.5000   0.5000   0.5000   -1.5822311    1.5813595    1.5824441   0
    0  662.8889960   72.8934385  629.2964258  -0.5000   0.5000   0.5000   -1.5822311    1.5813595    1.5824441   0
    0  665.2314876   73.1659222  630.2909653  -0.5000   0.5000   0.5000   -1.5822311    1.5813595    1.5824441   0
    0  666.7627041   73.1112826  631.9387425  -0.5000   0.5000   0.5000   -1.5822311    1.5813595    1.5824441   0
    0  668.5467846   73.9609526  632.7349840  -0.5000   0.5000   0.5000   -1.5822311    1.5813595    1.5824441   0
    0  670.5858422   75.7210959  632.6881972  -0.5000   0.5000   0.5000   -1.5822311    1.5813595    1.5824441   0
    0  671.9855552   77.5368416  633.4497655  -0.5000   0.5000   0.5000   -1.5822311    1.5813595    1.5824441   0
    0  672.8500280   78.9776449  634.7335578  -0.5000   0.5000   0.5000   -1.5822311    1.5813595    1.5824441   0
    0  673.7799348   80.2955526  634.9261341  -0.5000   0.5000   0.5000   -1.5822311    1.5813595    1.5824441   0
    0  674.6797001   82.0271194  634.1035856  -0.5000   0.5000   0.5000   -1.5822311    1.5813595    1.5824441   0
    0  675.5850900   84.4583135  633.4003767  -0.5000   0.5000   0.5000   -1.5822311    1.5813595    1.5824441   0
    0  676.6455845   86.9198561  633.7470271  -0.5000   0.5000   0.5000   -1.5822311    1.5813595    1.5824441   0
    0  677.8399445   88.6374889  635.6412777  -0.5000   0.5000   0.5000   -1.5822311    1.5813595    1.5824441   0
    1  167.0843747  118.5665239    8.0536673  -0.5000  -0.5000  -0.5000   -1.5825055   -1.5812457   -1.5823312   0
    1  162.9501684  120.9293159    7.1892778  -0.5000  -0.5000  -0.5000   -1.5825055   -1.5812457   -1.5823312   0
    1  161.6382152  122.2288599    6.3112606  -0.5000  -0.5000  -0.5000   -1.5825055   -1.5812457   -1.5823312   0
    1  161.7747500  123.3628925    5.9846039  -0.5000  -0.5000  -0.5000   -1.5825055   -1.5812457   -1.5823312   0
    1  161.0386084  125.2425379    6.1482122  -0.5000  -0.5000  -0.5000   -1.5825055   -1.5812457   -1.5823312   0
    1  159.5465761  127.5405417    6.4728068  -0.5000  -0.5000  -0.5000   -1.5825055   -1.5812457   -1.5823312   0
    1  158.3206379  128.6775226    8.0056754  -0.5000  -0.5000  -0.5000   -1.5825055   -1.5812457   -1.5823312   0
    1  157.3892156  128.3629811    9.9370697  -0.5000  -0.5000  -0.5000   -1.5825055   -1.5812457   -1.5823312   0
    1  156.1364290  127.9413786   11.1048488  -0.5000  -0.5000  -0.5000   -1.5825055   -1.5812457   -1.5823312   0
    1  155.1247979  128.0119512   12.6571348  -0.5000  -0.5000  -0.5000   -1.5825055   -1.5812457   -1.5823312   0
    1  154.8494302  127.9838776   15.1406924  -0.5000  -0.5000  -0.5000   -1.5825055   -1.5812457   -1.5823312   0
    1  154.6534652  127.5452351   17.6045647  -0.5000  -0.5000  -0.5000   -1.5825055   -1.5812457   -1.5823312   0
    1  153.9798991  126.7260899   19.2280404  -0.5000  -0.5000  -0.5000   -1.5825055   -1.5812457   -1.5823312   0
    1  152.9434558  125.8799585   20.7591525  -0.5000  -0.5000  -0.5000   -1.5825055   -1.5812457   -1.5823312   0
    1  151.6981718  125.5332506   22.5433684  -0.5000  -0.5000  -0.5000   -1.5825055   -1.5812457   -1.5823312   0
    1  150.6423955  125.6097241   23.9815182  -0.5000  -0.5000  -0.5000   -1.5825055   -1.5812457   -1.5823312   0
    1  150.7733479  126.0963001   25.5671882  -0.5000  -0.5000  -0.5000   -1.5825055   -1.5812457   -1.5823312   0
    1  151.2920035  126.8633962   27.3014754  -0.5000  -0.5000  -0.5000   -1.5825055   -1.5812457   -1.5823312   0
    1  150.4902780  127.4510416   27.8858494  -0.5000  -0.5000  -0.5000   -1.5825055   -1.5812457   -1.5823312   0
    1  148.7893710  127.9070471   27.5956321  -0.5000  -0.5000  -0.5000   -1.5825055   -1.5812457   -1.5823312   0
    1  147.0205052  128.7655819   28.1078008  -0.5000  -0.5000  -0.5000   -1.5825055   -1.5812457   -1.5823312   0
    1  145.4279169  129.7723342   29.7032215  -0.5000  -0.5000  -0.5000   -1.5825055   -1.5812457   -1.5823312   0
    1  144.3938114  129.9802666   31.7564608  -0.5000  -0.5000  -0.5000   -1.5825055   -1.5812457   -1.5823312   0
    1  143.9418706  129.5159215   34.1943926  -0.5000  -0.5000  -0.5000   -1.5825055   -1.5812457   -1.5823312   0
    1  143.6518473  129.1527257   36.8582803  -0.5000  -0.5000  -0.5000   -1.5825055   -1.5812457   -1.5823312   0
    1  142.8113149  128.7581065   39.1078590  -0.5000  -0.5000  -0.5000   -1.5825055   -1.5812457   -1.5823312   0
    1  141.7590181  128.3631456   41.0757552  -0.5000  -0.5000  -0.5000   -1.5825055   -1.5812457   -1.5823312   0
    1  141.0801649  128.9810212   42.6314417  -0.5000  -0.5000  -0.5000   -1.5825055   -1.5812457   -1.5823312   0
    1  140.2442228  131.1213664   43.1239720  -0.5000  -0.5000  -0.5000   -1.5825055   -1.5812457   -1.5823312   0
    1  138.6508335  133.3463729   43.2900108  -0.5000  -0.5000  -0.5000   -1.5825055   -1.5812457   -1.5823312   0
    1  136.3369650  134.3020047   43.9134231  -0.5000  -0.5000  -0.5000   -1.5825055   -1.5812457   -1.5823312   0
    1  134.8482561  135.1061535   44.8664467  -0.5000  -0.5000  -0.5000   -1.5825055   -1.5812457   -1.5823312   0
    1  135.1290811  136.6953915   45.9727693  -0.5000  -0.5000  -0.5000   -1.5825055   -1.5812457   -1.5823312   0
    1  135.7584733  138.6664621   46.8332310  -0.5000  -0.5000  -0.5000   -1.5825055   -1.5812457   -1.5823312   0
    1  135.7395592  140.7177188   47.1692110  -0.5000  -0.5000  -0.5000   -1.5825055   -1.5812457   -1.5823312   0
    1  135.4653081  142.7955538   47.3236727  -0.5000  -0.5000  -0.5000   -1.5825055   -1.5812457   -1.5823312   0
    1  135.6952524  144.6857263   47.2545992  -0.5000  -0.5000  -0.5000   -1.5825055   -1.5812457   -1.5823312   0
    1  136.7523581  145.6664197   46.2511388  -0.5000  -0.5000  -0.5000   -1.5825055   -1.5812457   -1.5823312   0
    1  137.8815434  145.8481832   44.2912105  -0.5000  -0.5000  -0.5000   -1.5825055   -1.5812457   -1.5823312   0
    1  138.5415739  146.8659818   42.3993561  -0.5000  -0.5000  -0.5000   -1.5825055   -1.5812457   -1.5823312   0
    1  138.4918963  149.3317658   41.3573878  -0.5000  -0.5000  -0.5000   -1.5825055   -1.5812457   -1.5823312   0
    1  137.3062734  151.7495904   41.0587245  -0.5000  -0.5000  -0.5000   -1.5825055   -1.5812457   -1.5823312   0
    1  135.7835008  153.0804601   41.5051994  -0.5000  -0.5000  -0.5000   -1.5825055   -1.5812457   -1.5823312   0
    1  134.7696899  154.0704416   42.4414021  -0.5000  -0.5000  -0.5000   -1.5825055   -1.5812457   -1.5823312   0
    1  133.7902394  155.5647354   43.3430042  -0.5000  -0.5000  -0.5000   -1.5825055   -1.5812457   -1.5823312   0
    1  132.8768719  157.3228240   44.2813238  -0.5000  -0.5000  -0.5000   -1.5825055   -1.5812457   -1.5823312   0
    1  132.3251506  159.6210598   44.7438974  -0.5000  -0.5000  -0.5000   -1.5825055   -1.5812457   -1.5823312   0
    1  131.9248557  162.7079038   44.3845460  -0.5000  -0.5000  -0.5000   -1.5825055   -1.5812457   -1.5823312   0
    1  132.0579944  164.9991710   43.3317540  -0.5000  -0.5000  -0.5000   -1.5825055   -1.5812457   -1.5823312   0
    1  132.7220080  166.6629323   42.2967931  -0.5000  -0.5000  -0.5000   -1.5825055   -1.5812457   -1.5823312   0
    1  132.6782575  169.0763908   42.3017823  -0.5000  -0.5000  -0.5000   -1.5825055   -1.5812457   -1.5823312   0
    1  131.7120952  171.2924701   42.7895709  -0.5000  -0.5000  -0.5000   -1.5825055   -1.5812457   -1.5823312   0
    1  131.0255523  173.2173418   43.0354042  -0.5000  -0.5000  -0.5000   -1.5825055   -1.5812457   -1.5823312   0
    1  130.6077219  175.2395303   43.2768380  -0.5000  -0.5000  -0.5000   -1.5825055   -1.5812457   -1.5823312   0
    1  129.9554104  176.6989620   43.5193998  -0.5000  -0.5000  -0.5000   -1.5825055   -1.5812457   -1.5823312   0
    1  129.5812426  178.1468628   43.2357818  -0.5000  -0.5000  -0.5000   -1.5825055   -1.5812457   -1.5823312   0
    1  129.9089467  180.1022849   42.9436548  -0.5000  -0.5000  -0.5000   -1.5825055   -1.5812457   -1.5823312   0
    1  130.5997799  182.0096791   43.5051892  -0.5000  -0.5000  -0.5000   -1.5825055   -1.5812457   -1.5823312   0
    1  131.3453981  183.7362104   44.6879724  -0.5000  -0.5000  -0.5000   -1.5825055   -1.5812457   -1.5823312   0
    1  132.1468170  185.3480948   45.7258434  -0.5000  -0.5000  -0.5000   -1.5825055   -1.5812457   -1.5823312   0
    1  132.7681083  186.4532470   45.4471776  -0.5000  -0.5000  -0.5000   -1.5825055   -1.5812457   -1.5823312   0
    1  133.5152598  186.6913189   43.8148367  -0.5000  -0.5000  -0.5000   -1.5825055   -1.5812457   -1.5823312   0
    1  134.5880611  187.0141941   42.2977149  -0.5000  -0.5000  -0.5000   -1.5825055   -1.5812457   -1.5823312   0
    1  135.3458962  188.8776086   41.6272732  -0.5000  -0.5000  -0.5000   -1.5825055   -1.5812457   -1.5823312   0
    1  135.3674085  191.8223075   41.6162041  -0.5000  -0.5000  -0.5000   -1.5825055   -1.5812457   -1.5823312   0
    1  134.7150846  194.2350534   42.2304881  -0.5000  -0.5000  -0.5000   -1.5825055   -1.5812457   -1.5823312   0
    1  133.9662487  195.7231553   43.2821075  -0.5000  -0.5000  -0.5000   -1.5825055   -1.5812457   -1.5823312   0
    1  133.5064574  196.7919086   43.9831869  -0.5000  -0.5000  -0.5000   -1.5825055   -1.5812457   -1.5823312   0
    1  133.9121163  197.4732746   44.4793164  -0.5000  -0.5000  -0.5000   -1.5825055   -1.5812457   -1.5823312   0
    1  135.5986807  197.5586709   44.8842952  -0.5000  -0.5000  -0.5000   -1.5825055   -1.5812457   -1.5823312   0
    1  137.5481471  197.6072845   44.0701302  -0.5000  -0.5000  -0.5000   -1.5825055   -1.5812457   -1.5823312   0
    1  139.5519098  198.5161464   43.0212554  -0.5000  -0.5000  -0.5000   -1.5825055   -1.5812457   -1.5823312   0
    1  141.3173107  199.7699665   42.6378719  -0.5000  -0.5000  -0.5000   -1.5825055   -1.5812457   -1.5823312   0
    1  142.0440560  200.6035002   41.5355471  -0.5000  -0.5000  -0.5000   -1.5825055   -1.5812457   -1.5823312   0
    1  142.8666044  201.3023137   40.0890961  -0.5000  -0.5000  -0.5000   -1.5825055   -1.5812457   -1.5823312   0
    1  144.1058594  202.5587894   38.8758215  -0.5000  -0.5000  -0.5000   -1.5825055   -1.5812457   -1.5823312   0
    1  144.9876152  204.3494269   37.8234431  -0.5000  -0.5000  -0.5000   -1.5825055   -1.5812457   -1.5823312   0
    1  146.1347991  205.9810156   37.7670353  -0.5000  -0.5000  -0.5000   -1.5825055   -1.5812457   -1.5823312   0
    1  147.9761957  207.2793687   37.7917325  -0.5000  -0.5000  -0.5000   -1.5825055   -1.5812457   -1.5823312   0
    1  150.3053641  208.5608981   37.2679605  -0.5000  -0.5000  -0.5000   -1.5825055   -1.5812457   -1.5823312   0
    1  152.9277657  209.7447362   37.1441862  -0.5000  -0.5000  -0.5000   -1.5825055   -1.5812457   -1.5823312   0
    1  155.3991909  210.0107304   37.0460971  -0.5000  -0.5000  -0.5000   -1.5825055   -1.5812457   -1.5823312   0
    1  157.7691104  209.6032168   36.6042104  -0.5000  -0.5000  -0.5000   -1.5825055   -1.5812457   -1.5823312   0
    1  159.8872434  210.0729739   36.2755850  -0.5000  -0.5000  -0.5000   -1.5825055   -1.5812457   -1.5823312   0
    1  161.7138437  211.3123279   35.8821900  -0.5000  -0.5000  -0.5000   -1.5825055   -1.5812457   -1.5823312   0
    1  163.2775373  211.3877909   35.5134588  -0.5000  -0.5000  -0.5000   -1.5825055   -1.5812457   -1.5823312   0
    1  163.7565464  210.0134915   36.1030878  -0.5000  -0.5000  -0.5000   -1.5825055   -1.5812457   -1.5823312   0
    1  163.3481883  208.6640309   37.5800459  -0.5000  -0.5000  -0.5000   -1.5825055   -1.5812457   -1.5823312   0
    1  163.4630978  207.8869353   39.0441724  -0.5000  -0.5000  -0.5000   -1.5825055   -1.5812457   -1.5823312   0
    1  164.8126944  206.7412055   39.8060445  -0.5000  -0.5000  -0.5000   -1.5825055   -1.5812457   -1.5823312   0
    1  166.6254028  204.8281975   39.5588859  -0.5000  -0.5000  -0.5000   -1.5825055   -1.5812457   -1.5823312   0
    1  168.0935882  203.8092902   38.9588871  -0.5000  -0.5000  -0.5000   -1.5825055   -1.5812457   -1.5823312   0
    1  169.0897388  204.5940379   38.2281982  -0.5000  -0.5000  -0.5000   -1.5825055   -1.5812457   -1.5823312   0
    1  169.9963228  206.2121765   36.7402048  -0.5000  -0.5000  -0.5000   -1.5825055   -1.5812457   -1.5823312   0
    1  171.4277070  207.6707932   34.7317725  -0.5000  -0.5000  -0.5000   -1.5825055   -1.5812457   -1.5823312   0
    1  173.2782233  208.5422475   33.2537943  -0.5000  -0.5000  -0.5000   -1.5825055   -1.5812457   -1.5823312   0
    1  175.0831206  209.2562727   32.7411261  -0.5000  -0.5000  -0.5000   -1.5825055   -1.5812457   -1.5823312   0
    1  176.5222476  209.9063537   32.0155064  -0.5000  -0.5000  -0.5000   -1.5825055   -1.5812457   -1.5823312   0
    1  177.6340781  210.6282889   30.3890575  -0.5000  -0.5000  -0.5000   -1.5825055   -1.5812457   -1.5823312   0
    1  178.8139362  211.9159502   29.0365666  -0.5000  -0.5000  -0.5000   -1.5825055   -1.5812457   -1.5823312   0
    1  180.4726805  213.1596895   28.6551682  -0.5000  -0.5000  -0.5000   -1.5825055   -1.5812457   -1.5823312   0
    1  182.6748528  213.9900292   28.4784728  -0.5000  -0.5000  -0.5000   -1.5825055   -1.5812457   -1.5823312   0
    1  184.6057732  214.8229153   27.6887089  -0.5000  -0.5000  -0.5000   -1.5825055   -1.5812457   -1.5823312   0
    1  186.2702901  215.3082311   27.3174661  -0.5000  -0.5000  -0.5000   -1.5825055   -1.5812457   -1.5823312   0
    1  187.6242239  215.3894568   27.5774072  -0.5000  -0.5000  -0.5000   -1.5825055   -1.5812457   -1.5823312   0
    1  187.6315065  215.7234981   26.4261972  -0.5000  -0.5000  -0.5000   -1.5825055   -1.5812457   -1.5823312   0
    1  187.3735386  216.4552337   24.2226422  -0.5000  -0.5000  -0.5000   -1.5825055   -1.5812457   -1.5823312   0
    1  188.0547114  217.6402927   22.6677751  -0.5000  -0.5000  -0.5000   -1.5825055   -1.5812457   -1.5823312   0
    1  189.2243771  219.0110677   21.6046643  -0.5000  -0.5000  -0.5000   -1.5825055   -1.5812457   -1.5823312   0
    1  190.4840257  220.0438856   20.4587039  -0.5000  -0.5000  -0.5000   -1.5825055   -1.5812457   -1.5823312   0
    1  192.0226139  220.5540287   19.2025107  -0.5000  -0.5000  -0.5000   -1.5825055   -1.5812457   -1.5823312   0
    1  193.8967857  220.7946057   17.8949141  -0.5000  -0.5000  -0.5000   -1.5825055   -1.5812457   -1.5823312   0
    1  195.6432210  220.8214700   16.4669095  -0.5000  -0.5000  -0.5000   -1.5825055   -1.5812457   -1.5823312   0
    1  197.0816445  219.7945648   15.4840471  -0.5000  -0.5000  -0.5000   -1.5825055   -1.5812457   -1.5823312   0
    1  197.8492823  217.5259661   14.5422978  -0.5000  -0.5000  -0.5000   -1.5825055   -1.5812457   -1.5823312   0
    1  197.9016222  215.5588234   13.2772301  -0.5000  -0.5000  -0.5000   -1.5825055   -1.5812457   -1.5823312   0
    1  198.1180768  215.7402719   12.7111605  -0.5000  -0.5000  -0.5000   -1.5825055   -1.5812457   -1.5823312   0
    1  198.7864612  217.9392766   11.9919704  -0.5000  -0.5000  -0.5000   -1.5825055   -1.5812457   -1.5823312   0
    1  199.0073953  220.4247921   10.7234651  -0.5000  -0.5000  -0.5000   -1.5825055   -1.5812457   -1.5823312   0
    1  198.7704205  222.8303144   10.0637933  -0.5000  -0.5000  -0.5000   -1.5825055   -1.5812457   -1.5823312   0
    1  199.1669958  225.3082780    9.5924367  -0.5000  -0.5000  -0.5000   -1.5825055   -1.5812457   -1.5823312   0
    1  199.9211796  227.2699089    8.4910326  -0.5000  -0.5000  -0.5000   -1.5825055   -1.5812457   -1.5823312   0
    1  200.6461746  228.8413554    7.5537008  -0.5000  -0.5000  -0.5000   -1.5825055   -1.5812457   -1.5823312   0
    1  202.0708495  229.9059112    7.0164296  -0.5000  -0.5000  -0.5000   -1.5825055   -1.5812457   -1.5823312   0
    1  203.6302201  230.2742323    5.5322988  -0.5000  -0.5000  -0.5000   -1.5825055   -1.5812457   -1.5823312   0
    1  204.3857732  230.8912126    3.9240746  -0.5000  -0.5000  -0.5000   -1.5825055   -1.5812457   -1.5823312   0
    1  204.7292145  232.2940341    3.3812478  -0.5000  -0.5000  -0.5000   -1.5825055   -1.5812457   -1.5823312   0
    1  204.6840730  233.6069175    2.3744185  -0.5000  -0.5000  -0.5000   -1.5825055   -1.5812457   -1.5823312   0
    1  204.9171966  233.8284710    0.9117440  -0.5000  -0.5000  -0.5000   -1.5825055   -1.5812457   -1.5823312   0
    1  206.0849130  232.9708224    0.7608900  -0.5000  -0.5000  -0.5000   -1.5825055   -1.5812457   -1.5823312   0
    1  207.1006739  231.7341959    1.5426045  -0.5000  -0.5000  -0.5000   -1.5825055   -1.5812457   -1.5823312   0
    1  208.1942912  230.7977556    1.7388577  -0.5000  -0.5000  -0.5000   -1.5825055   -1.5812457   -1.5823312   0
    1  209.9821701  230.1908330    1.0249400  -0.5000  -0.5000  -0.5000   -1.5825055   -1.5812457   -1.5823312   0
    1  211.9726775  229.7555116    0.1223757  -0.5000  -0.5000  -0.5000   -1.5825055   -1.5812457   -1.5823312   0
    1  213.9199572  229.3785460   -0.9490815  -0.5000  -0.5000  -0.5000   -1.5825055   -1.5812457   -1.5823312   0
    1  215.6864730  228.8303476   -2.3075554  -0.5000  -0.5000  -0.5000   -1.5825055   -1.5812457   -1.5823312   0
    1  217.1118337  228.1398938   -2.7568876  -0.5000  -0.5000  -0.5000   -1.5825055   -1.5812457   -1.5823312   0
    1  218.7798642  227.1812031   -3.4607962  -0.5000  -0.5000  -0.5000   -1.5825055   -1.5812457   -1.5823312   0
    1  221.8286868  225.7110563   -6.9632050  -0.5000  -0.5000  -0.5000   -1.5825055   -1.5812457   -1.5823312   0
    2  241.5170714  602.0067142  306.9627142  -0.5000  -0.5000   0.5000   -1.5824891   -1.5834043    1.5823873   0
    2  240.7258924  604.2879750  307.8145488  -0.5000  -0.5000   0.5000   -1.5824891   -1.5834043    1.5823873   0
    2  239.7989734  605.7724985  309.1150502  -0.5000  -0.5000   0.5000   -1.5824891   -1.5834043    1.5823873   0
    2  238.4343986  606.7003074  310.6609442  -0.5000  -0.5000   0.5000   -1.5824891   -1.5834043    1.5823873   0
    2  237.9297575  607.6845823  311.3298910  -0.5000  -0.5000   0.5000   -1.5824891   -1.5834043    1.5823873   0
    2  239.5207632  608.1111464  311.4604483  -0.5000  -0.5000   0.5000   -1.5824891   -1.5834043    1.5823873   0
    2  241.6055567  608.1902451  312.0282996  -0.5000  -0.5000   0.5000   -1.5824891   -1.5834043    1.5823873   0
    2  243.3149237  608.5455533  313.0349975  -0.5000  -0.5000   0.5000   -1.5824891   -1.5834043    1.5823873   0
    2  245.6061939  608.7195394  313.7640981  -0.5000  -0.5000   0.5000   -1.5824891   -1.5834043    1.5823873   0
    2  247.8222529  608.1733191  313.4993053  -0.5000  -0.5000   0.5000   -1.5824891   -1.5834043    1.5823873   0
    2  249.5501860  607.1779476  312.9976563  -0.5000  -0.5000   0.5000   -1.5824891   -1.5834043    1.5823873   0
    2  251.6386764  606.2862936  313.2532768  -0.5000  -0.5000   0.5000   -1.5824891   -1.5834043    1.5823873   0
    2  253.8777148  605.7027936  313.9645076  -0.5000  -0.5000   0.5000   -1.5824891   -1.5834043    1.5823873   0
    2  255.6185374  605.5521985  315.3240404  -0.5000  -0.5000   0.5000   -1.5824891   -1.5834043    1.5823873   0
    2  257.3445004  605.6777215  316.7263993  -0.5000  -0.5000   0.5000   -1.5824891   -1.5834043    1.5823873   0
    2  259.7547079  606.0950923  316.9166297  -0.5000  -0.5000   0.5000   -1.5824891   -1.5834043    1.5823873   0
    2  261.9379964  606.8327474  316.9739946  -0.5000  -0.5000   0.5000   -1.5824891   -1.5834043    1.5823873   0
    2  263.2796433  607.5640435  318.0396679  -0.5000  -0.5000   0.5000   -1.5824891   -1.5834043    1.5823873   0
    2  264.6333450  607.8747287  319.7740769  -0.5000  -0.5000   0.5000   -1.5824891   -1.5834043    1.5823873   0
    2  266.6091938  607.5503347  321.2539696  -0.5000  -0.5000   0.5000   -1.5824891   -1.5834043    1.5823873   0
    2  268.9684247  606.8789519  322.0464441  -0.5000  -0.5000   0.5000   -1.5824891   -1.5834043    1.5823873   0
    2  271.0348121  606.5560930  322.9246653  -0.5000  -0.5000   0.5000   -1.5824891   -1.5834043    1.5823873   0
    2  272.5589398  606.9533530  323.9635586  -0.5000  -0.5000   0.5000   -1.5824891   -1.5834043    1.5823873   0
    2  273.4179248  607.2388564  324.2584409  -0.5000  -0.5000   0.5000   -1.5824891   -1.5834043    1.5823873   0
    2  273.5385715  606.8162857  323.6792143  -0.5000  -0.5000   0.5000   -1.5824891   -1.5834043    1.5823873   0
    3  662.5908419  471.4455905  664.5420712   0.5000   0.5000   0.5000    1.5825055    1.5812457    1.5823312   1
    3  663.3480272  469.9966581  663.1619976   0.5000   0.5000   0.5000    1.5825055    1.5812457    1.5823312   1
    3  664.2821334  468.4494840  662.1727887   0.5000   0.5000   0.5000    1.5825055    1.5812457    1.5823312   1
    3  665.5095626  466.9229366  661.4882738   0.5000   0.5000   0.5000    1.5825055    1.5812457    1.5823312   1
    3  666.9996225  465.7457609  660.2697076   0.5000   0.5000   0.5000    1.5825055    1.5812457    1.5823312   1
    3  669.0438811  464.7228743  659.5627882   0.5000   0.5000   0.5000    1.5825055    1.5812457    1.5823312   1
    3  670.6838462  462.8966209  659.7551945   0.5000   0.5000   0.5000    1.5825055    1.5812457    1.5823312   1
    3  670.7730711  460.9342057  660.3393831   0.5000   0.5000   0.5000    1.5825055    1.5812457    1.5823312   1
    3  669.8164632  459.5459332  661.1184540   0.5000   0.5000   0.5000    1.5825055    1.5812457    1.5823312   1
    3  668.7157117  458.3047845  662.0264572   0.5000   0.5000   0.5000    1.5825055    1.5812457    1.5823312   1
    3  667.8308449  457.4246414  663.5520793   0.5000   0.5000   0.5000    1.5825055    1.5812457    1.5823312   1
    3  667.0822493  457.1835721  665.7726721   0.5000   0.5000   0.5000    1.5825055    1.5812457    1.5823312   1
    3  665.7155108  457.5421868  667.4189735   0.5000   0.5000   0.5000    1.5825055    1.5812457    1.5823312   1
    3  664.3510723  459.2485313  667.9360660   0.5000   0.5000   0.5000    1.5825055    1.5812457    1.5823312   1
    3  663.5022050  461.8691335  667.7680914   0.5000   0.5000   0.5000    1.5825055    1.5812457    1.5823312   1
    3  662.5035873  463.5001327  666.9178115   0.5000   0.5000   0.5000    1.5825055    1.5812457    1.5823312   1
    3  662.0218956  464.4255942  666.0443282   0.5000   0.5000   0.5000    1.5825055    1.5812457    1.5823312   1
    3  662.3475438  466.0259627  666.1791389   0.5000   0.5000   0.5000    1.5825055    1.5812457    1.5823312   1
    3  662.8031905  468.3576342  666.6685477   0.5000   0.5000   0.5000    1.5825055    1.5812457    1.5823312   1
    3  662.7177344  470.4531196  666.5697395   0.5000   0.5000   0.5000    1.5825055    1.5812457    1.5823312   1
    3  662.3594239  471.4650107  666.0393281   0.5000   0.5000   0.5000    1.5825055    1.5812457    1.5823312   1
    3  662.5908420  471.4455907  664.5420713   0.5000   0.5000   0.5000    1.5825055    1.5812457    1.5823312   1
    4  612.0957667  234.2405000  428.4240999  -0.5000   0.5000   0.5000   -1.5822311    1.5813595    1.5824441   0
    4  611.6797211  236.4289403  429.3090077  -0.5000   0.5000   0.5000   -1.5822311    1.5813595    1.5824441   0
    4  610.4887324  238.5898099  430.7555564  -0.5000   0.5000   0.5000   -1.5822311    1.5813595    1.5824441   0
    4  609.6889335  240.3602761  432.2631901  -0.5000   0.5000   0.5000   -1.5822311    1.5813595    1.5824441   0
    4  609.3815633  241.4362687  433.7235892  -0.5000   0.5000   0.5000   -1.5822311    1.5813595    1.5824441   0
    4  608.6456250  241.9003750  435.5885834  -0.5000   0.5000   0.5000   -1.5822311    1.5813595    1.5824441   0
    5  674.9367778   99.1348111  105.1935000   0.0000   0.0000  -1.0000   -0.0000164    0.0021586   -3.1647185   0
    5  676.2196913   99.2495826  106.9750104   0.0000   0.0000  -1.0000   -0.0000164    0.0021586   -3.1647185   0
    5  677.6677005   99.6087954  108.3401042   0.0000   0.0000  -1.0000   -0.0000164    0.0021586   -3.1647185   0
    5  678.4742784   99.9265407  110.2284587   0.0000   0.0000  -1.0000   -0.0000164    0.0021586   -3.1647185   0
    5  678.6962092   99.8048787  112.2793843   0.0000   0.0000  -1.0000   -0.0000164    0.0021586   -3.1647185   0