ITEM: TIMESTEP
0
ITEM: NUMBER OF ATOMS
12909
ITEM: BOX BOUNDS pp pp pp 
0.0 696.867311
0.0 696.625566
0.0 696.872476
ITEM: ATOMS id x y z tbx tby tbz sbx sby sbz loop
    0  356.6275333    5.1031920  490.1429667   0.5000  -0.5000   0.5000    1.5818941   -1.5831279    1.5825983   0
    0  360.4620677    6.6347873  489.2598512   0.5000  -0.5000   0.5000    1.5818941   -1.5831279    1.5825983   0
    0  362.3832773    6.4206819  487.8099922   0.5000  -0.5000   0.5000    1.5818941   -1.5831279    1.5825983   0
    0  362.5172919    5.1302609  486.2044525   0.5000  -0.5000   0.5000    1.5818941   -1.5831279    1.5825983   0
    0  362.7804500    3.9493383  484.8063135   0.5000  -0.5000   0.5000    1.5818941   -1.5831279    1.5825983   0
    0  363.1219645    3.9062780  483.1487482   0.5000  -0.5000   0.5000    1.5818941   -1.5831279    1.5825983   0
    0  363.2029532    4.9964019  481.4742841   0.5000  -0.5000   0.5000    1.5818941   -1.5831279    1.5825983   0
    0  364.0638448    6.2102520  480.4804428   0.5000  -0.5000   0.5000    1.5818941   -1.5831279    1.5825983   0
    0  364.9247065    7.6964626  480.3487522   0.5000  -0.5000   0.5000    1.5818941   -1.5831279    1.5825983   0
    0  365.1143634    9.8232800  480.5819465   0.5000  -0.5000   0.5000    1.5818941   -1.5831279    1.5825983   0
    0  365.6185392   12.0209838  480.9499424   0.5000  -0.5000   0.5000    1.5818941   -1.5831279    1.5825983   0
    0  365.7402221   13.8163786  481.9526446   0.5000  -0.5000   0.5000    1.5818941   -1.5831279    1.5825983   0
    0  365.2398173   15.1970663  483.3976991   0.5000  -0.5000   0.5000    1.5818941   -1.5831279    1.5825983   0
    0  365.5267358   16.6346458  484.7271962   0.5000  -0.5000   0.5000    1.5818941   -1.5831279    1.5825983   0
    0  367.0292370   18.3952439  485.6349885   0.5000  -0.5000   0.5000    1.5818941   -1.5831279    1.5825983   0
    0  369.2691882   19.5219161  485.5047325   0.5000  -0.5000   0.5000    1.5818941   -1.5831279    1.5825983   0
    0  370.6772037   20.0000409  484.3033337   0.5000  -0.5000   0.5000    1.5818941   -1.5831279    1.5825983   0
    0  370.9437247   21.1223839  482.8056746   0.5000  -0.5000   0.5000    1.5818941   -1.5831279    1.5825983   0
    0  371.3003369   22.9231662  481.4332643   0.5000  -0.5000   0.5000    1.5818941   -1.5831279    1.5825983   0
    0  372.2804026   24.4770879  480.4579340   0.5000  -0.5000   0.5000    1.5818941   -1.5831279    1.5825983   0
    0  373.4615225   25.6346041  479.7585191   0.5000  -0.5000   0.5000    1.5818941   -1.5831279    1.5825983   0
    0  374.3562134   26.8854801  478.7375157   0.5000  -0.5000   0.5000    1.5818941   -1.5831279    1.5825983   0
    0  374.9225217   28.6375363  477.2923779   0.5000  -0.5000   0.5000    1.5818941   -1.5831279    1.5825983   0
    0  375.1120202   31.0007285  475.9902598   0.5000  -0.5000   0.5000    1.5818941   -1.5831279    1.5825983   0
    0  375.3755552   33.8442670  475.5307144   0.5000  -0.5000   0.5000    1.5818941   -1.5831279    1.5825983   0
    0  375.7694020   37.0302086  475.7744910   0.5000  -0.5000   0.5000    1.5818941   -1.5831279    1.5825983   0
    0  376.0708232   39.6432442  476.2184307   0.5000  -0.5000   0.5000    1.5818941   -1.5831279    1.5825983   0
    0  375.7888269   41.4937648  476.0990993   0.5000  -0.5000   0.5000    1.5818941   -1.5831279    1.5825983   0
    0  374.5753662   43.6197530  475.2964572   0.5000  -0.5000   0.5000    1.5818941   -1.5831279    1.5825983   0
    0  373.2506776   46.0531178  475.0135311   0.5000  -0.5000   0.5000    1.5818941   -1.5831279    1.5825983   0
    0  372.0688133   48.5199323  475.1185113   0.5000  -0.5000   0.5000    1.5818941   -1.5831279    1.5825983   0
    0  370.4693225   50.6924627  474.7442902   0.5000  -0.5000   0.5000    1.5818941   -1.5831279    1.5825983   0
    0  368.4283583   51.8874212  474.6607141   0.5000  -0.5000   0.5000    1.5818941   -1.5831279    1.5825983   0
    0  366.5648258   52.6790203  475.5990521   0.5000  -0.5000   0.5000    1.5818941   -1.5831279    1.5825983   0
    0  365.8207044   53.9154742  477.0865842   0.5000  -0.5000   0.5000    1.5818941   -1.5831279    1.5825983   0
    0  366.0658663   55.7796139  478.2816005   0.5000  -0.5000   0.5000    1.5818941   -1.5831279    1.5825983   0
    0  366.4559952   58.0160548  479.0142804   0.5000  -0.5000   0.5000    1.5818941   -1.5831279    1.5825983   0
    0  367.1075156   59.8779668  479.8408485   0.5000  -0.5000   0.5000    1.5818941   -1.5831279    1.5825983   0
    0  368.1602896   61.6148209  480.7500012   0.5000  -0.5000   0.5000    1.5818941   -1.5831279    1.5825983   0
    0  369.0566766   63.7799141  481.6019532   0.5000  -0.5000   0.5000    1.5818941   -1.5831279    1.5825983   0
    0  369.2945596   65.8762767  482.8857456   0.5000  -0.5000   0.5000    1.5818941   -1.5831279    1.5825983   0
    0  369.0982222   67.2916500  485.1231111   0.5000  -0.5000   0.5000    1.5818941   -1.5831279    1.5825983   0
    1  514.9979762  576.2944405  356.0419226  -0.5000   0.5000   0.5000   -1.5824046    1.5817172    1.5823250   0
    1  513.0713659  576.0365270  356.3596176  -0.5000   0.5000   0.5000   -1.5824046    1.5817172    1.5823250   0
    1  511.2577031  575.8431199  357.7856098  -0.5000   0.5000   0.5000   -1.5824046    1.5817172    1.5823250   0
    1  509.8733075  575.5473311  359.4623533  -0.5000   0.5000   0.5000   -1.5824046    1.5817172    1.5823250   0
    1  508.7012470  574.8874505  360.6999632  -0.5000   0.5000   0.5000   -1.5824046    1.5817172    1.5823250   0
    1  507.4941910  573.9044217  361.7061979  -0.5000   0.5000   0.5000   -1.5824046    1.5817172    1.5823250   0
    1  505.7239751  573.4142181  362.6125256  -0.5000   0.5000   0.5000   -1.5824046    1.5817172    1.5823250   0
    1  502.7025256  573.6803334  363.0539143  -0.5000   0.5000   0.5000   -1.5824046    1.5817172    1.5823250   0
    1  499.8265554  573.9133435  362.5616814  -0.5000   0.5000   0.5000   -1.5824046    1.5817172    1.5823250   0
    1  498.0344076  573.9840642  361.1580857  -0.5000   0.5000   0.5000   -1.5824046    1.5817172    1.5823250   0
    1  496.3370150  573.6465159  359.5920182  -0.5000   0.5000   0.5000   -1.5824046    1.5817172    1.5823250   0
    1  494.8485011  573.2188103  358.1740675  -0.5000   0.5000   0.5000   -1.5824046    1.5817172    1.5823250   0
    1  494.3703774  573.6611453  356.6935291  -0.5000   0.5000   0.5000   -1.5824046    1.5817172    1.5823250   0
    1  494.8057157  574.5969434  354.9741421  -0.5000   0.5000   0.5000   -1.5824046    1.5817172    1.5823250   0
    1  495.6813744  575.4764989  353.1652267  -0.5000   0.5000   0.5000   -1.5824046    1.5817172    1.5823250   0
    1  496.7877295  576.1834068  351.3485865  -0.5000   0.5000   0.5000   -1.5824046    1.5817172    1.5823250   0
    1  497.5308492  576.6552896  349.1297385  -0.5000   0.5000   0.5000   -1.5824046    1.5817172    1.5823250   0
    1  497.6791365  576.6895647  346.6859173  -0.5000   0.5000   0.5000   -1.5824046    1.5817172    1.5823250   0
    1  497.9730169  576.1160318  345.6304038  -0.5000   0.5000   0.5000   -1.5824046    1.5817172    1.5823250   0
    1  498.2287263  576.5408060  347.2753208  -0.5000   0.5000   0.5000   -1.5824046    1.5817172    1.5823250   0
    1  497.9540589  578.9247627  349.4932544  -0.5000   0.5000   0.5000   -1.5824046    1.5817172    1.5823250   0
    1  497.9876677  581.3552825  349.6257882  -0.5000   0.5000   0.5000   -1.5824046    1.5817172    1.5823250   0
    1  499.0381493  582.7735727  348.5950645  -0.5000   0.5000   0.5000   -1.5824046    1.5817172    1.5823250   0
    1  501.4097195  583.3985565  348.1088972  -0.5000   0.5000   0.5000   -1.5824046    1.5817172    1.5823250   0
    1  504.5459334  583.6617450  347.9843077  -0.5000   0.5000   0.5000   -1.5824046    1.5817172    1.5823250   0
    1  506.9282179  583.7915840  347.5620047  -0.5000   0.5000   0.5000   -1.5824046    1.5817172    1.5823250   0
    1  508.2244182  584.0066831  347.6028348  -0.5000   0.5000   0.5000   -1.5824046    1.5817172    1.5823250   0
    1  509.0366303  585.0683009  349.1981203  -0.5000   0.5000   0.5000   -1.5824046    1.5817172    1.5823250   0
    2  641.5454285  265.2102858  172.7091429   0.5000  -0.5000  -0.5000    1.5824046   -1.5817172   -1.5823250   0
    2  640.4026867  264.6080286  173.4384658   0.5000  -0.5000  -0.5000    1.5824046   -1.5817172   -1.5823250   0
    2  639.7491527  263.7062900  174.7864856   0.5000  -0.5000  -0.5000    1.5824046   -1.5817172   -1.5823250   0
    2  639.8887891  262.7060446  176.2361881   0.5000  -0.5000  -0.5000    1.5824046   -1.5817172   -1.5823250   0
    2  640.9978238  262.1285645  177.0471779   0.5000  -0.5000  -0.5000    1.5824046   -1.5817172   -1.5823250   0
    2  643.0992363  262.2219182  177.3879833   0.5000  -0.5000  -0.5000    1.5824046   -1.5817172   -1.5823250   0
    2  644.9302925  263.3531850  177.5266427   0.5000  -0.5000  -0.5000    1.5824046   -1.5817172   -1.5823250   0
    2  645.0366241  264.6467673  176.9688032   0.5000  -0.5000  -0.5000    1.5824046   -1.5817172   -1.5823250   0
    2  644.8493942  264.5284697  175.7480253   0.5000  -0.5000  -0.5000    1.5824046   -1.5817172   -1.5823250   0
    2  646.0981428  263.4041429  174.3414286   0.5000  -0.5000  -0.5000    1.5824046   -1.5817172   -1.5823250   0
    3  684.7366555   96.7956515  105.2026667  -0.0000  -0.0000  -1.0000    0.0005105    0.0014107   -3.1649233   0
    3  686.2410298   98.3215904  107.5524958  -0.0000  -0.0000  -1.0000    0.0005105    0.0014107   -3.1649233   0
    3  686.9472379   99.2740152  109.5905513  -0.0000  -0.0000  -1.0000    0.0005105    0.0014107   -3.1649233   0
    3  687.5787151   99.5417466  111.5983013  -0.0000  -0.0000  -1.0000    0.0005105    0.0014107   -3.1649233   0
    3  688.5502629   99.1933613  113.3438656  -0.0000  -0.0000  -1.0000    0.0005105    0.0014107   -3.1649233   0
    3  689.6307939   98.1199681  114.6300102  -0.0000  -0.0000  -1.0000    0.0005105    0.0014107   -3.1649233   0
    3  690.4829928   97.0230177  116.1278172  -0.0000  -0.0000  -1.0000    0.0005105    0.0014107   -3.1649233   0
    3  691.0826035   96.6279690  117.9264729  -0.0000  -0.0000  -1.0000    0.0005105    0.0014107   -3.1649233   0
    3  691.7996055   96.3384581  119.7100967  -0.0000  -0.0000  -1.0000    0.0005105    0.0014107   -3.1649233   0
    3  693.0829587   95.3010804  121.3736067  -0.0000  -0.0000  -1.0000    0.0005105    0.0014107   -3.1649233   0
    3  694.9791733   94.0621492  122.3838429  -0.0000  -0.0000  -1.0000    0.0005105    0.0014107   -3.1649233   0
    3  696.4363236   93.2811429  122.7921006  -0.0000  -0.0000  -1.0000    0.0005105    0.0014107   -3.1649233   0
    3  696.7241286   92.3274117  123.7608522  -0.0000  -0.0000  -1.0000    0.0005105    0.0014107   -3.1649233   0
    3  696.7207755   91.0883164  125.4263747  -0.0000  -0.0000  -1.0000    0.0005105    0.0014107   -3.1649233   0
    3  696.4298393   89.9966457  127.0610084  -0.0000  -0.0000  -1.0000    0.0005105    0.0014107   -3.1649233   0
    3  695.4485559   88.7211555  128.4819399  -0.0000  -0.0000  -1.0000    0.0005105    0.0014107   -3.1649233   0
    3  694.9559715   87.1247987  129.7395221  -0.0000  -0.0000  -1.0000    0.0005105    0.0014107   -3.1649233   0
    3  695.1655813   85.6591432  131.1618920  -0.0000  -0.0000  -1.0000    0.0005105    0.0014107   -3.1649233   0
    3  695.2886149   84.6219679  132.8700045  -0.0000  -0.0000  -1.0000    0.0005105    0.0014107   -3.1649233   0
    3  695.1453069   83.6630836  134.4987805  -0.0000  -0.0000  -1.0000    0.0005105    0.0014107   -3.1649233   0
    3  694.5411768   82.1124440  136.0606012  -0.0000  -0.0000  -1.0000    0.0005105    0.0014107   -3.1649233   0
    4  641.7373333  118.9034444  622.9976667  -0.0000  -0.0000  -1.0000    0.0005105    0.0014107   -3.1649233   0
    4  641.1099823  121.3854090  622.2262844  -0.0000  -0.0000  -1.0000    0.0005105    0.0014107   -3.1649233   0
    4  640.7278956  123.4435437  621.9096193  -0.0000  -0.0000  -1.0000    0.0005105    0.0014107   -3.1649233   0
    4  640.1745074  125.1925822  622.0289519  -0.0000  -0.0000  -1.0000    0.0005105    0.0014107   -3.1649233   0
    4  639.9644609  127.1818880  622.1537699  -0.0000  -0.0000  -1.0000    0.0005105    0.0014107   -3.1649233   0
    4  640.4972045  129.2904992  622.2883624  -0.0000  -0.0000  -1.0000    0.0005105    0.0014107   -3.1649233   0
    4  641.6514436  131.0291985  622.7468250  -0.0000  -0.0000  -1.0000    0.0005105    0.0014107   -3.1649233   0
    4  642.5791153  132.5178626  624.0978530  -0.0000  -0.0000  -1.0000    0.0005105    0.0014107   -3.1649233   0
    4  642.6938304  134.4394493  625.4769967  -0.0000  -0.0000  -1.0000    0.0005105    0.0014107   -3.1649233   0
    4  642.5374210  136.6320816  625.5418703  -0.0000  -0.0000  -1.0000    0.0005105    0.0014107   -3.1649233   0
    4  642.6630266  138.3204186  625.1928707  -0.0000  -0.0000  -1.0000    0.0005105    0.0014107   -3.1649233   0
    4  643.2333571  140.0875715  625.5895001  -0.0000  -0.0000  -1.0000    0.0005105    0.0014107   -3.1649233   0
    5  381.1875374  231.8610758  581.9772433  -0.5000  -0.5000  -0.5000   -1.5824713   -1.5817844   -1.5825733   1
    5  382.9361610  231.2787852  583.0272303  -0.5000  -0.5000  -0.5000   -1.5824713   -1.5817844   -1.5825733   1
    5  383.7457031  230.2126467  584.5564636  -0.5000  -0.5000  -0.5000   -1.5824713   -1.5817844   -1.5825733   1
    5  383.4712389  228.1051643  585.2970099  -0.5000  -0.5000  -0.5000   -1.5824713   -1.5817844   -1.5825733   1
    5  383.3260275  225.5239963  585.5004159  -0.5000  -0.5000  -0.5000   -1.5824713   -1.5817844   -1.5825733   1
    5  384.2832636  223.0970318  585.6263003  -0.5000  -0.5000  -0.5000   -1.5824713   -1.5817844   -1.5825733   1
    5  386.0259529  221.6766181  585.8398460  -0.5000  -0.5000  -0.5000   -1.5824713   -1.5817844   -1.5825733   1
    5  387.7309674  220.9793110  585.9036839  -0.5000  -0.5000  -0.5000   -1.5824713   -1.5817844   -1.5825733   1
    5  389.7870661  220.2044124  585.5997135  -0.5000  -0.5000  -0.5000   -1.5824713   -1.5817844   -1.5825733   1
    5  392.1290877  220.0980891  584.7359227  -0.5000  -0.5000  -0.5000   -1.5824713   -1.5817844   -1.5825733   1
    5  393.3320889  220.7862108  583.0000700  -0.5000  -0.5000  -0.5000   -1.5824713   -1.5817844   -1.5825733   1
    5  393.5661512  222.1520761  580.8095125  -0.5000  -0.5000  -0.5000   -1.5824713   -1.5817844   -1.5825733   1
    5  393.3907869  224.0785912  579.2847444  -0.5000  -0.5000  -0.5000   -1.5824713   -1.5817844   -1.5825733   1
    5  392.3894022  225.6137866  579.2593452  -0.5000  -0.5000  -0.5000   -1.5824713   -1.5817844   -1.5825733   1
    5  390.7895398  226.4780667  580.1163771  -0.5000  -0.5000  -0.5000   -1.5824713   -1.5817844   -1.5825733   1
    5  388.4729866  226.8923875  580.6154181  -0.5000  -0.5000  -0.5000   -1.5824713   -1.5817844   -1.5825733   1
    5  385.9426060  227.5610562  580.8521217  -0.5000  -0.5000  -0.5000   -1.5824713   -1.5817844   -1.5825733   1
    5  384.1017857  228.7523081  581.1899957  -0.5000  -0.5000  -0.5000   -1.5824713   -1.5817844   -1.5825733   1
    5  382.5358254  229.9884045  581.5823641  -0.5000  -0.5000  -0.5000   -1.5824713   -1.5817844   -1.5825733   1
    5  381.3525946  230.9926033  581.8330536  -0.5000  -0.5000  -0.5000   -1.5824713   -1.5817844   -1.5825733   1
    5  381.1875372  231.8610758  581.9772431  -0.5000  -0.5000  -0.5000   -1.5824713   -1.5817844   -1.5825733   1
    6  537.0892500   11.5516600  486.4920625   0.5000  -0.5000  -0.5000    1.5824046   -1.5817172   -1.5823250   0
    6  534.6626968   13.7458575  485.0430418   0.5000  -0.5000  -0.5000    1.5824046   -1.5817172   -1.5823250   0
    6  533.5474712   15.2260312  483.7086900   0.5000  -0.5000  -0.5000    1.5824046   -1.5817172   -1.5823250   0
    6  533.3478355   16.5445524  482.5431762   0.5000  -0.5000  -0.5000    1.5824046   -1.5817172   -1.5823250   0
    6  533.6271889   18.2020903  482.4139613   0.5000  -0.5000  -0.5000    1.5824046   -1.5817172   -1.5823250   0
    6  534.3540266   20.0163786  483.0760731   0.5000  -0.5000  -0.5000    1.5824046   -1.5817172   -1.5823250   0
    6  534.8018747   22.2792677  483.0220751   0.5000  -0.5000  -0.5000    1.5824046   -1.5817172   -1.5823250   0
    6  535.0980791   24.8246721  482.2076272   0.5000  -0.5000  -0.5000    1.5824046   -1.5817172   -1.5823250   0
    6  535.8921356   26.8815520  481.5061702   0.5000  -0.5000  -0.5000    1.5824046   -1.5817172   -1.5823250   0
    6  537.1926225   28.5495534  481.1620582   0.5000  -0.5000  -0.5000    1.5824046   -1.5817172   -1.5823250   0
    6  539.0283024   29.3522535  480.6861874   0.5000  -0.5000  -0.5000    1.5824046   -1.5817172   -1.5823250   0
    6  540.2322485   29.6217760  480.6177842   0.5000  -0.5000  -0.5000    1.5824046   -1.5817172   -1.5823250   0
    6  539.9439605   31.0809845  482.0808532   0.5000  -0.5000  -0.5000    1.5824046   -1.5817172   -1.5823250   0
    6  540.2625204   32.9585228  483.7464585   0.5000  -0.5000  -0.5000    1.5824046   -1.5817172   -1.5823250   0
    6  541.3948721   33.4668667  485.2850403   0.5000  -0.5000  -0.5000    1.5824046   -1.5817172   -1.5823250   0
    6  541.4685714   32.6499001  488.4890714   0.5000  -0.5000  -0.5000    1.5824046   -1.5817172   -1.5823250   0
    7  417.7135333  -93.6333657  330.9402500   0.5000  -0.5000  -0.5000    1.5824046   -1.5817172   -1.5823250   0
    7  419.3039037  -91.2131354  327.9916840   0.5000  -0.5000  -0.5000    1.5824046   -1.5817172   -1.5823250   0
    7  420.8950712  -90.4963246  327.5164222   0.5000  -0.5000  -0.5000    1.5824046   -1.5817172   -1.5823250   0
    7  422.1023713  -88.9410309  328.2819102   0.5000  -0.5000  -0.5000    1.5824046   -1.5817172   -1.5823250   0
    7  423.2923659  -86.4363845  328.5026112   0.5000  -0.5000  -0.5000    1.5824046   -1.5817172   -1.5823250   0
    7  424.6373220  -84.5513938  328.7057145   0.5000  -0.5000  -0.5000    1.5824046   -1.5817172   -1.5823250   0
    7  425.9149806  -82.9686609  329.0643120   0.5000  -0.5000  -0.5000    1.5824046   -1.5817172   -1.5823250   0
    7  427.2547229  -81.4376216  329.2405025   0.5000  -0.5000  -0.5000    1.5824046   -1.5817172   -1.5823250   0
    7  428.8645039  -80.2524005  329.9739568   0.5000  -0.5000  -0.5000    1.5824046   -1.5817172   -1.5823250   0
    7  430.9238204  -78.9061962  331.0835684   0.5000  -0.5000  -0.5000    1.5824046   -1.5817172   -1.5823250   0
    7  432.3766564  -76.8170761  331.7224547   0.5000  -0.5000  -0.5000    1.5824046   -1.5817172   -1.5823250   0
    7  432.4329426  -74.8384499  331.6188865   0.5000  -0.5000  -0.5000    1.5824046   -1.5817172   -1.5823250   0
    7  432.4696019  -73.8021589  330.5745868   0.5000  -0.5000  -0.5000    1.5824046   -1.5817172   -1.5823250   0
    7  432.9698874  -72.5800674  329.1791856   0.5000  -0.5000  -0.5000    1.5824046   -1.5817172   -1.5823250   0
    7  433.0311790  -70.4457762  328.4204361   0.5000  -0.5000  -0.5000    1.5824046   -1.5817172   -1.5823250   0
    7  432.3522963  -68.4030273  327.8194225   0.5000  -0.5000  -0.5000    1.5824046   -1.5817172   -1.5823250   0
    7  432.3421118  -67.3159710  326.9051755   0.5000  -0.5000  -0.5000    1.5824046   -1.5817172   -1.5823250   0
    7  434.1374194  -67.5309160  326.6427901   0.5000  -0.5000  -0.5000    1.5824046   -1.5817172   -1.5823250   0
    7  436.0956122  -67.9624360  327.1333388   0.5000  -0.5000  -0.5000    1.5824046   -1.5817172   -1.5823250   0
    7  436.8444729  -66.7385560  327.5420579   0.5000  -0.5000  -0.5000    1.5824046   -1.5817172   -1.5823250   0
    7  437.4469111  -64.2562519  327.6256949   0.5000  -0.5000  -0.5000    1.5824046   -1.5817172   -1.5823250   0
    7  438.6498614  -62.1353122  327.8441112   0.5000  -0.5000  -0.5000    1.5824046   -1.5817172   -1.5823250   0
    7  439.5629317  -60.5009810  328.4655854   0.5000  -0.5000  -0.5000    1.5824046   -1.5817172   -1.5823250   0
    7  440.0356229  -58.8269772  329.3510472   0.5000  -0.5000  -0.5000    1.5824046   -1.5817172   -1.5823250   0
    7  440.4847395  -56.4243705  330.1149846   0.5000  -0.5000  -0.5000    1.5824046   -1.5817172   -1.5823250   0
    7  441.0456372  -53.4634794  330.1865932   0.5000  -0.5000  -0.5000    1.5824046   -1.5817172   -1.5823250   0
    7  442.6593675  -51.7574517  329.9832228   0.5000  -0.5000  -0.5000    1.5824046   -1.5817172   -1.5823250   0
    7  445.2069883  -51.2187542  330.0393962   0.5000  -0.5000  -0.5000    1.5824046   -1.5817172   -1.5823250   0
    7  447.0008260  -49.6963264  330.2027019   0.5000  -0.5000  -0.5000    1.5824046   -1.5817172   -1.5823250   0
    7  447.9022571  -47.2729689  330.5802528   0.5000  -0.5000  -0.5000    1.5824046   -1.5817172   -1.5823250   0
    7  449.1296241  -46.0879632  331.4770631   0.5000  -0.5000  -0.5000    1.5824046   -1.5817172   -1.5823250   0
    7  450.8415803  -45.8299439  332.6315202   0.5000  -0.5000  -0.5000    1.5824046   -1.5817172   -1.5823250   0
    7  452.4890914  -44.9331183  333.5485955   0.5000  -0.5000  -0.5000    1.5824046   -1.5817172   -1.5823250   0
    7  454.3517602  -43.9936664  334.0767309   0.5000  -0.5000  -0.5000    1.5824046   -1.5817172   -1.5823250   0
    7  456.8816498  -43.9735644  334.3681716   0.5000  -0.5000  -0.5000    1.5824046   -1.5817172   -1.5823250   0
    7  458.7687316  -44.1384508  334.6807468   0.5000  -0.5000  -0.5000    1.5824046   -1.5817172   -1.5823250   0
    7  459.0960739  -43.0728946  334.6942684   0.5000  -0.5000  -0.5000    1.5824046   -1.5817172   -1.5823250   0
    7  458.9216217  -40.5635138  334.4852570   0.5000  -0.5000  -0.5000    1.5824046   -1.5817172   -1.5823250   0
    7  458.5305869  -38.0908117  333.7555396   0.5000  -0.5000  -0.5000    1.5824046   -1.5817172   -1.5823250   0
    7  457.5284899  -36.6773660  332.5160802   0.5000  -0.5000  -0.5000    1.5824046   -1.5817172   -1.5823250   0
    7  456.1785417  -35.3367111  331.9624898   0.5000  -0.5000  -0.5000    1.5824046   -1.5817172   -1.5823250   0
    7  455.1643881  -33.1876958  331.7950204   0.5000  -0.5000  -0.5000    1.5824046   -1.5817172   -1.5823250   0
    7  454.9822931  -30.0786529  331.6160600   0.5000  -0.5000  -0.5000    1.5824046   -1.5817172   -1.5823250   0
    7  455.5866597  -26.8675208  332.0538437   0.5000  -0.5000  -0.5000    1.5824046   -1.5817172   -1.5823250   0
    7  456.3246587  -24.7468852  333.2700220   0.5000  -0.5000  -0.5000    1.5824046   -1.5817172   -1.5823250   0
    7  456.8288107  -23.1143909  334.4363603   0.5000  -0.5000  -0.5000    1.5824046   -1.5817172   -1.5823250   0
    7  457.7992800  -22.1405301  335.1560154   0.5000  -0.5000  -0.5000    1.5824046   -1.5817172   -1.5823250   0
    7  458.8135962  -22.3676130  336.1692414   0.5000  -0.5000  -0.5000    1.5824046   -1.5817172   -1.5823250   0
    7  459.6214718  -22.2338234  337.4919259   0.5000  -0.5000  -0.5000    1.5824046   -1.5817172   -1.5823250   0
    7  461.2032732  -21.3537719  338.5685826   0.5000  -0.5000  -0.5000    1.5824046   -1.5817172   -1.5823250   0
    7  462.9647178  -20.2866248  339.3945549   0.5000  -0.5000  -0.5000    1.5824046   -1.5817172   -1.5823250   0
    7  464.2261278  -18.9056130  339.7833128   0.5000  -0.5000  -0.5000    1.5824046   -1.5817172   -1.5823250   0
    7  465.1775922  -17.3534472  339.6473953   0.5000  -0.5000  -0.5000    1.5824046   -1.5817172   -1.5823250   0
    7  465.2607967  -15.7705695  339.2374251   0.5000  -0.5000  -0.5000    1.5824046   -1.5817172   -1.5823250   0
    7  464.8987269  -14.3899872  338.7849556   0.5000  -0.5000  -0.5000    1.5824046   -1.5817172   -1.5823250   0
    7  465.5376864  -13.3760930  338.4194010   0.5000  -0.5000  -0.5000    1.5824046   -1.5817172   -1.5823250   0
    7  466.0665259  -12.1204555  338.4606237   0.5000  -0.5000  -0.5000    1.5824046   -1.5817172   -1.5823250   0
    7  465.4057393  -10.2527822  339.7671626   0.5000  -0.5000  -0.5000    1.5824046   -1.5817172   -1.5823250   0
    7  465.4964022   -8.2211128  341.3838911   0.5000  -0.5000  -0.5000    1.5824046   -1.5817172   -1.5823250   0
    7  467.0075054   -6.1007934  341.8340187   0.5000  -0.5000  -0.5000    1.5824046   -1.5817172   -1.5823250   0
    7  468.7452984   -4.7568735  342.2187879   0.5000  -0.5000  -0.5000    1.5824046   -1.5817172   -1.5823250   0
    7  469.9435855   -4.2029499  343.2710598   0.5000  -0.5000  -0.5000    1.5824046   -1.5817172   -1.5823250   0
    7  470.5378892   -2.7457087  344.0094496   0.5000  -0.5000  -0.5000    1.5824046   -1.5817172   -1.5823250   0
    7  471.1149786   -0.5256668  344.4561012   0.5000  -0.5000  -0.5000    1.5824046   -1.5817172   -1.5823250   0
    7  471.8741190    1.5160280  345.3190217   0.5000  -0.5000  -0.5000    1.5824046   -1.5817172   -1.5823250   0
    7  472.6966159    2.8908904  346.8131059   0.5000  -0.5000  -0.5000    1.5824046   -1.5817172   -1.5823250   0
    7  472.9670074    3.7057240  348.9953294   0.5000  -0.5000  -0.5000    1.5824046   -1.5817172   -1.5823250   0
    7  472.9073007    4.7724363  351.3093218   0.5000  -0.5000  -0.5000    1.5824046   -1.5817172   -1.5823250   0
    7  473.6935605    6.1036606  353.1293335   0.5000  -0.5000  -0.5000    1.5824046   -1.5817172   -1.5823250   0
    7  474.9232052    7.0279862  354.6680494   0.5000  -0.5000  -0.5000    1.5824046   -1.5817172   -1.5823250   0
    7  475.9460088    7.0369787  356.2083066   0.5000  -0.5000  -0.5000    1.5824046   -1.5817172   -1.5823250   0
    7  476.7604885    6.4329978  358.1287496   0.5000  -0.5000  -0.5000    1.5824046   -1.5817172   -1.5823250   0
    7  477.1787240    5.5567205  360.5661695   0.5000  -0.5000  -0.5000    1.5824046   -1.5817172   -1.5823250   0
    7  477.7878145    4.5244804  362.5727652   0.5000  -0.5000  -0.5000    1.5824046   -1.5817172   -1.5823250   0
    7  479.2669335    3.4549097  363.5065378   0.5000  -0.5000  -0.5000    1.5824046   -1.5817172   -1.5823250   0
    7  480.6205609    3.1388633  363.9152375   0.5000  -0.5000  -0.5000    1.5824046   -1.5817172   -1.5823250   0
    7  481.1338692    4.7979983  364.5120535   0.5000  -0.5000  -0.5000    1.5824046   -1.5817172   -1.5823250   0
    7  481.5941224    7.4039313  364.8705387   0.5000  -0.5000  -0.5000    1.5824046   -1.5817172   -1.5823250   0
    7  482.3869665    9.3782988  364.3628052   0.5000  -0.5000  -0.5000    1.5824046   -1.5817172   -1.5823250   0
    7  483.1897757   11.2398305  363.5387417   0.5000  -0.5000  -0.5000    1.5824046   -1.5817172   -1.5823250   0
    7  483.2441143   13.8269737  362.9634181   0.5000  -0.5000  -0.5000    1.5824046   -1.5817172   -1.5823250   0
    7  482.8633795   16.6440181  362.4681957   0.5000  -0.5000  -0.5000    1.5824046   -1.5817172   -1.5823250   0
    7  483.3655907   18.6933631  362.7327673   0.5000  -0.5000  -0.5000    1.5824046   -1.5817172   -1.5823250   0
    7  484.4527240   19.2816870  364.3357754   0.5000  -0.5000  -0.5000    1.5824046   -1.5817172   -1.5823250   0
    7  485.3439108   18.9994172  366.5863838   0.5000  -0.5000  -0.5000    1.5824046   -1.5817172   -1.5823250   0
    7  486.3210255   19.1122282  368.9890370   0.5000  -0.5000  -0.5000    1.5824046   -1.5817172   -1.5823250   0
    7  487.4086131   19.7672552  371.0020678   0.5000  -0.5000  -0.5000    1.5824046   -1.5817172   -1.5823250   0
    7  488.1449810   20.9543566  371.9051068   0.5000  -0.5000  -0.5000    1.5824046   -1.5817172   -1.5823250   0
    7  488.8189681   22.8206974  371.7001518   0.5000  -0.5000  -0.5000    1.5824046   -1.5817172   -1.5823250   0
    7  489.7927573   24.8594752  371.5676445   0.5000  -0.5000  -0.5000    1.5824046   -1.5817172   -1.5823250   0
    7  490.6024535   26.9125109  372.1756634   0.5000  -0.5000  -0.5000    1.5824046   -1.5817172   -1.5823250   0
    7  490.9972878   28.7818992  373.1298133   0.5000  -0.5000  -0.5000    1.5824046   -1.5817172   -1.5823250   0
    7  491.6886112   30.2352839  374.3926203   0.5000  -0.5000  -0.5000    1.5824046   -1.5817172   -1.5823250   0
    7  493.2492908   31.3869067  375.9150723   0.5000  -0.5000  -0.5000    1.5824046   -1.5817172   -1.5823250   0
    7  495.1763489   32.2881404  377.1466026   0.5000  -0.5000  -0.5000    1.5824046   -1.5817172   -1.5823250   0
    7  496.6475944   33.6704215  377.5722186   0.5000  -0.5000  -0.5000    1.5824046   -1.5817172   -1.5823250   0
    7  497.8914997   35.0531226  377.6402378   0.5000  -0.5000  -0.5000    1.5824046   -1.5817172   -1.5823250   0
    7  499.2449166   34.8935256  378.0701209   0.5000  -0.5000  -0.5000    1.5824046   -1.5817172   -1.5823250   0
    7  499.4715696   33.7530742  379.0065821   0.5000  -0.5000  -0.5000    1.5824046   -1.5817172   -1.5823250   0
    7  498.4913762   32.8880454  380.8027869   0.5000  -0.5000  -0.5000    1.5824046   -1.5817172   -1.5823250   0
    7  498.1960823   32.1423168  383.3214107   0.5000  -0.5000  -0.5000    1.5824046   -1.5817172   -1.5823250   0
    7  499.4213355   32.0668870  384.9194623   0.5000  -0.5000  -0.5000    1.5824046   -1.5817172   -1.5823250   0
    7  501.0485375   33.2715868  385.4684998   0.5000  -0.5000  -0.5000    1.5824046   -1.5817172   -1.5823250   0
    7  502.0195180   34.8633689  386.5900144   0.5000  -0.5000  -0.5000    1.5824046   -1.5817172   -1.5823250   0
    7  503.0266373   35.7889971  387.5667719   0.5000  -0.5000  -0.5000    1.5824046   -1.5817172   -1.5823250   0
    7  504.9700122   35.7872602  387.9950083   0.5000  -0.5000  -0.5000    1.5824046   -1.5817172   -1.5823250   0
    7  506.2758953   35.5068670  388.2958662   0.5000  -0.5000  -0.5000    1.5824046   -1.5817172   -1.5823250   0
    7  505.2611725   34.4568086  387.7824589   0.5000  -0.5000  -0.5000    1.5824046   -1.5817172   -1.5823250   0
    7  503.3756749   32.7475791  387.6902354   0.5000  -0.5000  -0.5000    1.5824046   -1.5817172   -1.5823250   0