ITEM: TIMESTEP
0
ITEM: NUMBER OF ATOMS
8429
ITEM: BOX BOUNDS pp pp pp 
0.0 695.588131
0.0 696.946846
0.0 697.935613
ITEM: ATOMS id x y z tbx tby tbz sbx sby sbz loop
    0  210.7320068   22.9344655  254.3473216   0.5000   0.5000  -0.5000    1.5819281    1.5841318   -1.5815649   0
    0  206.5525834   26.5545861  255.0713246   0.5000   0.5000  -0.5000    1.5819281    1.5841318   -1.5815649   0
    0  206.5580070   28.4726285  256.1078536   0.5000   0.5000  -0.5000    1.5819281    1.5841318   -1.5815649   0
    0  208.3709426   29.0957421  257.2973081   0.5000   0.5000  -0.5000    1.5819281    1.5841318   -1.5815649   0
    0  209.6588866   29.2616744  258.7438373   0.5000   0.5000  -0.5000    1.5819281    1.5841318   -1.5815649   0
    0  210.2034007   29.4717236  260.4695173   0.5000   0.5000  -0.5000    1.5819281    1.5841318   -1.5815649   0
    0  211.0612941   29.5117857  262.6161117   0.5000   0.5000  -0.5000    1.5819281    1.5841318   -1.5815649   0
    0  213.8715123   28.7400829  265.6124327   0.5000   0.5000  -0.5000    1.5819281    1.5841318   -1.5815649   0
    1  656.6729906  443.9235204  589.4929404   0.5000  -0.5000   0.5000    1.5822065   -1.5836695    1.5796909   1
    1  654.6143758  443.3924432  590.3564811   0.5000  -0.5000   0.5000    1.5822065   -1.5836695    1.5796909   1
    1  652.9634977  442.0293351  591.0967439   0.5000  -0.5000   0.5000    1.5822065   -1.5836695    1.5796909   1
    1  651.6851891  440.8753725  592.0399356   0.5000  -0.5000   0.5000    1.5822065   -1.5836695    1.5796909   1
    1  650.0471467  441.2067696  593.0587360   0.5000  -0.5000   0.5000    1.5822065   -1.5836695    1.5796909   1
    1  649.0297252  442.5030915  594.1179975   0.5000  -0.5000   0.5000    1.5822065   -1.5836695    1.5796909   1
    1  649.1366514  443.8494666  595.9878760   0.5000  -0.5000   0.5000    1.5822065   -1.5836695    1.5796909   1
    1  649.7863266  445.1657624  597.8159368   0.5000  -0.5000   0.5000    1.5822065   -1.5836695    1.5796909   1
    1  650.7106830  446.3525099  598.8040879   0.5000  -0.5000   0.5000    1.5822065   -1.5836695    1.5796909   1
    1  651.6354430  447.8470094  599.1021633   0.5000  -0.5000   0.5000    1.5822065   -1.5836695    1.5796909   1
    1  653.1136012  449.1065221  598.7271783   0.5000  -0.5000   0.5000    1.5822065   -1.5836695    1.5796909   1
    1  654.6354654  449.4162100  597.2308335   0.5000  -0.5000   0.5000    1.5822065   -1.5836695    1.5796909   1
    1  654.9645219  448.6894981  594.9241628   0.5000  -0.5000   0.5000    1.5822065   -1.5836695    1.5796909   1
    1  654.8248334  447.0707935  592.8488602   0.5000  -0.5000   0.5000    1.5822065   -1.5836695    1.5796909   1
    1  655.1550378  445.5504013  591.2567226   0.5000  -0.5000   0.5000    1.5822065   -1.5836695    1.5796909   1
    1  656.0112759  444.7020070  590.2108339   0.5000  -0.5000   0.5000    1.5822065   -1.5836695    1.5796909   1
    1  656.6729907  443.9235203  589.4929403   0.5000  -0.5000   0.5000    1.5822065   -1.5836695    1.5796909   1
    2  591.8035061  179.5220430   86.8948831  -0.5000  -0.5000  -0.5000   -1.5802737   -1.5805327   -1.5825836   1
    2  591.7139043  180.9582871   88.0367198  -0.5000  -0.5000  -0.5000   -1.5802737   -1.5805327   -1.5825836   1
    2  590.6159400  183.3579947   88.8323497  -0.5000  -0.5000  -0.5000   -1.5802737   -1.5805327   -1.5825836   1
    2  589.0302141  185.2946180   89.4098901  -0.5000  -0.5000  -0.5000   -1.5802737   -1.5805327   -1.5825836   1
    2  587.3495287  185.8063546   90.6640163  -0.5000  -0.5000  -0.5000   -1.5802737   -1.5805327   -1.5825836   1
    2  585.9393187  185.0157044   92.0329477  -0.5000  -0.5000  -0.5000   -1.5802737   -1.5805327   -1.5825836   1
    2  584.3099372  183.5778557   93.1848157  -0.5000  -0.5000  -0.5000   -1.5802737   -1.5805327   -1.5825836   1
    2  582.7669042  181.9357286   94.3582051  -0.5000  -0.5000  -0.5000   -1.5802737   -1.5805327   -1.5825836   1
    2  582.6835683  180.3968047   94.7471203  -0.5000  -0.5000  -0.5000   -1.5802737   -1.5805327   -1.5825836   1
    2  584.2518216  179.4546734   94.6369596  -0.5000  -0.5000  -0.5000   -1.5802737   -1.5805327   -1.5825836   1
    2  586.7778629  179.0973000   94.5642267  -0.5000  -0.5000  -0.5000   -1.5802737   -1.5805327   -1.5825836   1
    2  589.3421917  178.2460113   94.4665773  -0.5000  -0.5000  -0.5000   -1.5802737   -1.5805327   -1.5825836   1
    2  591.2278970  176.8303415   93.9987837  -0.5000  -0.5000  -0.5000   -1.5802737   -1.5805327   -1.5825836   1
    2  592.5763549  176.3058415   92.6776045  -0.5000  -0.5000  -0.5000   -1.5802737   -1.5805327   -1.5825836   1
    2  593.4419162  177.0637677   90.7605500  -0.5000  -0.5000  -0.5000   -1.5802737   -1.5805327   -1.5825836   1
    2  593.3047591  178.1957536   88.7828788  -0.5000  -0.5000  -0.5000   -1.5802737   -1.5805327   -1.5825836   1
    2  592.5583241  178.8622645   87.4914568  -0.5000  -0.5000  -0.5000   -1.5802737   -1.5805327   -1.5825836   1
    2  591.8035061  179.5220429   86.8948831  -0.5000  -0.5000  -0.5000   -1.5802737   -1.5805327   -1.5825836   1
    3  677.1924636  116.5978949  610.8086691  -0.5000  -0.5000   0.5000   -1.5819281   -1.5841318    1.5815649   0
    3  679.4796841  116.6878023  616.5365749  -0.5000  -0.5000   0.5000   -1.5819281   -1.5841318    1.5815649   0
    3  680.8307799  116.4186798  618.8460169  -0.5000  -0.5000   0.5000   -1.5819281   -1.5841318    1.5815649   0
    3  681.8201595  116.8824724  619.3542639  -0.5000  -0.5000   0.5000   -1.5819281   -1.5841318    1.5815649   0
    3  682.5414687  118.0712849  620.4031119  -0.5000  -0.5000   0.5000   -1.5819281   -1.5841318    1.5815649   0
    3  683.2195026  118.6594428  622.6358009  -0.5000  -0.5000   0.5000   -1.5819281   -1.5841318    1.5815649   0
    3  683.8483259  118.6566918  625.1812851  -0.5000  -0.5000   0.5000   -1.5819281   -1.5841318    1.5815649   0
    3  684.7757847  118.4897314  627.2200543  -0.5000  -0.5000   0.5000   -1.5819281   -1.5841318    1.5815649   0
    3  686.1819946  118.4004628  629.0646178  -0.5000  -0.5000   0.5000   -1.5819281   -1.5841318    1.5815649   0
    3  686.9524009  119.3451245  630.5026761  -0.5000  -0.5000   0.5000   -1.5819281   -1.5841318    1.5815649   0
    3  686.2796174  121.2884181  631.1945044  -0.5000  -0.5000   0.5000   -1.5819281   -1.5841318    1.5815649   0
    3  685.4364279  123.3005375  631.8695083  -0.5000  -0.5000   0.5000   -1.5819281   -1.5841318    1.5815649   0
    3  685.5449258  125.0781582  633.0127961  -0.5000  -0.5000   0.5000   -1.5819281   -1.5841318    1.5815649   0
    3  685.7228911  126.7677867  634.1025152  -0.5000  -0.5000   0.5000   -1.5819281   -1.5841318    1.5815649   0
    3  685.3699495  128.7096533  635.1767687  -0.5000  -0.5000   0.5000   -1.5819281   -1.5841318    1.5815649   0
    3  684.5610579  130.2356296  636.8409363  -0.5000  -0.5000   0.5000   -1.5819281   -1.5841318    1.5815649   0
    3  683.1441946  131.0556354  638.1853678  -0.5000  -0.5000   0.5000   -1.5819281   -1.5841318    1.5815649   0
    3  681.9665028  133.1205150  638.5287279  -0.5000  -0.5000   0.5000   -1.5819281   -1.5841318    1.5815649   0
    3  681.8818845  136.4078708  639.4528218  -0.5000  -0.5000   0.5000   -1.5819281   -1.5841318    1.5815649   0
    3  681.6552218  138.4099265  641.5470914  -0.5000  -0.5000   0.5000   -1.5819281   -1.5841318    1.5815649   0
    3  680.9791811  138.3925519  642.7631764  -0.5000  -0.5000   0.5000   -1.5819281   -1.5841318    1.5815649   0
    3  680.9084130  137.2724371  641.4032648  -0.5000  -0.5000   0.5000   -1.5819281   -1.5841318    1.5815649   0
    3  680.6063969  136.2431513  638.8152441  -0.5000  -0.5000   0.5000   -1.5819281   -1.5841318    1.5815649   0
    3  679.0027047  136.2531246  637.0590118  -0.5000  -0.5000   0.5000   -1.5819281   -1.5841318    1.5815649   0
    3  677.0169796  137.2696473  636.0000792  -0.5000  -0.5000   0.5000   -1.5819281   -1.5841318    1.5815649   0
    3  675.7980832  139.0397594  635.2372135  -0.5000  -0.5000   0.5000   -1.5819281   -1.5841318    1.5815649   0
    3  674.7527938  140.9004346  635.2396068  -0.5000  -0.5000   0.5000   -1.5819281   -1.5841318    1.5815649   0
    3  673.5096767  142.2571958  636.1796307  -0.5000  -0.5000   0.5000   -1.5819281   -1.5841318    1.5815649   0
    3  672.7870500  143.9239142  637.6240001  -0.5000  -0.5000   0.5000   -1.5819281   -1.5841318    1.5815649   0
    3  672.1949358  146.0233167  638.4577994  -0.5000  -0.5000   0.5000   -1.5819281   -1.5841318    1.5815649   0
    3  671.1295407  147.7838838  637.9371256  -0.5000  -0.5000   0.5000   -1.5819281   -1.5841318    1.5815649   0
    3  669.4561707  148.9976966  636.4875910  -0.5000  -0.5000   0.5000   -1.5819281   -1.5841318    1.5815649   0
    3  667.4376104  150.2860175  634.9946706  -0.5000  -0.5000   0.5000   -1.5819281   -1.5841318    1.5815649   0
    3  665.9958590  151.7688387  633.6249388  -0.5000  -0.5000   0.5000   -1.5819281   -1.5841318    1.5815649   0
    3  665.1535952  152.5379185  631.6631363  -0.5000  -0.5000   0.5000   -1.5819281   -1.5841318    1.5815649   0
    3  663.7667211  152.3450890  629.1703527  -0.5000  -0.5000   0.5000   -1.5819281   -1.5841318    1.5815649   0
    3  662.2099439  151.9745391  626.9431873  -0.5000  -0.5000   0.5000   -1.5819281   -1.5841318    1.5815649   0
    3  662.2039998  152.5688574  626.3667537  -0.5000  -0.5000   0.5000   -1.5819281   -1.5841318    1.5815649   0
    3  663.2815530  153.9512827  627.9807385  -0.5000  -0.5000   0.5000   -1.5819281   -1.5841318    1.5815649   0
    3  663.7290437  154.3551250  630.2273027  -0.5000  -0.5000   0.5000   -1.5819281   -1.5841318    1.5815649   0
    3  663.5640874  153.5221034  632.2866432  -0.5000  -0.5000   0.5000   -1.5819281   -1.5841318    1.5815649   0
    3  663.2608159  153.1436839  634.1584050  -0.5000  -0.5000   0.5000   -1.5819281   -1.5841318    1.5815649   0
    3  662.7046599  153.4894404  635.9825487  -0.5000  -0.5000   0.5000   -1.5819281   -1.5841318    1.5815649   0
    3  662.3329512  154.0038170  638.6350429  -0.5000  -0.5000   0.5000   -1.5819281   -1.5841318    1.5815649   0
    3  662.4475602  154.5941623  641.7381011  -0.5000  -0.5000   0.5000   -1.5819281   -1.5841318    1.5815649   0
    3  662.8669540  155.1693343  644.0998166  -0.5000  -0.5000   0.5000   -1.5819281   -1.5841318    1.5815649   0
    3  663.6506605  155.5890056  646.2870554  -0.5000  -0.5000   0.5000   -1.5819281   -1.5841318    1.5815649   0
    3  664.9513079  155.4593921  648.7580352  -0.5000  -0.5000   0.5000   -1.5819281   -1.5841318    1.5815649   0
    3  666.4032966  154.7646276  650.6570266  -0.5000  -0.5000   0.5000   -1.5819281   -1.5841318    1.5815649   0
    3  667.5020369  153.8215733  651.4720178  -0.5000  -0.5000   0.5000   -1.5819281   -1.5841318    1.5815649   0
    3  668.5756691  153.0786062  651.0045923  -0.5000  -0.5000   0.5000   -1.5819281   -1.5841318    1.5815649   0
    3  669.8578253  152.4517554  650.6847843  -0.5000  -0.5000   0.5000   -1.5819281   -1.5841318    1.5815649   0
    3  670.6133167  151.6232129  652.0994168  -0.5000  -0.5000   0.5000   -1.5819281   -1.5841318    1.5815649   0
    3  670.6463465  152.1139677  653.8986315  -0.5000  -0.5000   0.5000   -1.5819281   -1.5841318    1.5815649   0
    3  670.7840119  154.4458146  655.2612060  -0.5000  -0.5000   0.5000   -1.5819281   -1.5841318    1.5815649   0
    3  670.7656415  156.3632472  656.6386460  -0.5000  -0.5000   0.5000   -1.5819281   -1.5841318    1.5815649   0
    3  670.2399598  157.6688708  657.0288215  -0.5000  -0.5000   0.5000   -1.5819281   -1.5841318    1.5815649   0
    3  669.6229705  159.1923279  656.5676032  -0.5000  -0.5000   0.5000   -1.5819281   -1.5841318    1.5815649   0
    3  668.5032005  160.5376615  656.1827942  -0.5000  -0.5000   0.5000   -1.5819281   -1.5841318    1.5815649   0
    3  666.8643609  162.2313371  656.4602041  -0.5000  -0.5000   0.5000   -1.5819281   -1.5841318    1.5815649   0
    3  664.9222084  164.5637084  658.6027083  -0.5000  -0.5000   0.5000   -1.5819281   -1.5841318    1.5815649   0
    4  582.9801394  129.4394776  573.5859114  -0.5000   0.5000  -0.5000   -1.5822065    1.5836695   -1.5796909   1
    4  583.8081735  128.4652696  572.4984697  -0.5000   0.5000  -0.5000   -1.5822065    1.5836695   -1.5796909   1
    4  584.7727915  127.6134164  571.3452060  -0.5000   0.5000  -0.5000   -1.5822065    1.5836695   -1.5796909   1
    4  585.4977907  128.0102880  570.1847204  -0.5000   0.5000  -0.5000   -1.5822065    1.5836695   -1.5796909   1
    4  586.7713230  128.4442300  568.8671798  -0.5000   0.5000  -0.5000   -1.5822065    1.5836695   -1.5796909   1
    4  588.8569707  129.1174991  568.3634394  -0.5000   0.5000  -0.5000   -1.5822065    1.5836695   -1.5796909   1
    4  590.8804925  130.0509055  569.2075667  -0.5000   0.5000  -0.5000   -1.5822065    1.5836695   -1.5796909   1
    4  592.7834391  131.3796224  569.8651704  -0.5000   0.5000  -0.5000   -1.5822065    1.5836695   -1.5796909   1
    4  593.7666476  133.5251714  570.3223838  -0.5000   0.5000  -0.5000   -1.5822065    1.5836695   -1.5796909   1
    4  593.8605902  134.9499984  571.9956800  -0.5000   0.5000  -0.5000   -1.5822065    1.5836695   -1.5796909   1
    4  592.9942339  135.1535787  573.8009020  -0.5000   0.5000  -0.5000   -1.5822065    1.5836695   -1.5796909   1
    4  591.1572365  135.2775124  574.9981187  -0.5000   0.5000  -0.5000   -1.5822065    1.5836695   -1.5796909   1
    4  589.5027536  135.5892437  576.3862096  -0.5000   0.5000  -0.5000   -1.5822065    1.5836695   -1.5796909   1
    4  588.0957719  134.9461076  577.6679000  -0.5000   0.5000  -0.5000   -1.5822065    1.5836695   -1.5796909   1
    4  587.0216991  133.4920907  577.8083258  -0.5000   0.5000  -0.5000   -1.5822065    1.5836695   -1.5796909   1
    4  586.2632789  132.2395389  576.6205200  -0.5000   0.5000  -0.5000   -1.5822065    1.5836695   -1.5796909   1
    4  585.2371465  131.0545807  575.4307154  -0.5000   0.5000  -0.5000   -1.5822065    1.5836695   -1.5796909   1
    4  584.1068649  130.2020861  574.8248021  -0.5000   0.5000  -0.5000   -1.5822065    1.5836695   -1.5796909   1
    4  582.9801394  129.4394775  573.5859114  -0.5000   0.5000  -0.5000   -1.5822065    1.5836695   -1.5796909   1
    5  664.9222084  164.5637084  658.6027083   0.5000   0.5000  -0.5000    1.5819281    1.5841318   -1.5815649   0
    5  662.2134345  164.9475852  659.9662993   0.5000   0.5000  -0.5000    1.5819281    1.5841318   -1.5815649   0
    5  660.5498011  165.7597532  659.9203961   0.5000   0.5000  -0.5000    1.5819281    1.5841318   -1.5815649   0
    5  659.1183831  166.4744194  658.3568979   0.5000   0.5000  -0.5000    1.5819281    1.5841318   -1.5815649   0
    5  656.9735700  166.5833251  656.6970797   0.5000   0.5000  -0.5000    1.5819281    1.5841318   -1.5815649   0
    5  654.6307283  166.1388032  655.6187102   0.5000   0.5000  -0.5000    1.5819281    1.5841318   -1.5815649   0
    5  653.6977126  165.7074548  653.9328156   0.5000   0.5000  -0.5000    1.5819281    1.5841318   -1.5815649   0
    5  654.3655180  165.3076266  651.7346721   0.5000   0.5000  -0.5000    1.5819281    1.5841318   -1.5815649   0
    5  655.7817261  164.1366212  650.5882317   0.5000   0.5000  -0.5000    1.5819281    1.5841318   -1.5815649   0
    5  657.5382131  162.3054517  650.3596391   0.5000   0.5000  -0.5000    1.5819281    1.5841318   -1.5815649   0
    5  659.5801622  161.2556355  650.5581814   0.5000   0.5000  -0.5000    1.5819281    1.5841318   -1.5815649   0
    5  661.5174008  161.2657101  651.6604154   0.5000   0.5000  -0.5000    1.5819281    1.5841318   -1.5815649   0
    5  662.9483859  161.5856310  653.1315037   0.5000   0.5000  -0.5000    1.5819281    1.5841318   -1.5815649   0
    5  663.9229675  162.2720326  653.9218496   0.5000   0.5000  -0.5000    1.5819281    1.5841318   -1.5815649   0
    5  664.4671376  163.3564922  655.2137584   0.5000   0.5000  -0.5000    1.5819281    1.5841318   -1.5815649   0
    5  664.9222084  164.5637084  658.6027083   0.5000   0.5000  -0.5000    1.5819281    1.5841318   -1.5815649   0
    6  373.0245320  691.8785925  648.3359213  -0.5000  -0.5000  -0.5000   -1.5802737   -1.5805327   -1.5825836   1
    6  371.8941695  691.7602440  647.3813838  -0.5000  -0.5000  -0.5000   -1.5802737   -1.5805327   -1.5825836   1
    6  370.6495994  692.8293539  646.0810546  -0.5000  -0.5000  -0.5000   -1.5802737   -1.5805327   -1.5825836   1
    6  369.1492760  694.3440941  645.6753666  -0.5000  -0.5000  -0.5000   -1.5802737   -1.5805327   -1.5825836   1
    6  366.7204518  695.4470999  645.6160738  -0.5000  -0.5000  -0.5000   -1.5802737   -1.5805327   -1.5825836   1
    6  364.8250149  695.7041443  646.8055852  -0.5000  -0.5000  -0.5000   -1.5802737   -1.5805327   -1.5825836   1
    6  364.5066286  694.8859468  648.8271330  -0.5000  -0.5000  -0.5000   -1.5802737   -1.5805327   -1.5825836   1
    6  364.5893003  693.1922827  650.4144285  -0.5000  -0.5000  -0.5000   -1.5802737   -1.5805327   -1.5825836   1
    6  364.6628422  691.8334692  652.1646373  -0.5000  -0.5000  -0.5000   -1.5802737   -1.5805327   -1.5825836   1
    6  364.8001738  690.4967692  653.8673708  -0.5000  -0.5000  -0.5000   -1.5802737   -1.5805327   -1.5825836   1
    6  365.3605101  689.1268561  654.9127356  -0.5000  -0.5000  -0.5000   -1.5802737   -1.5805327   -1.5825836   1
    6  366.9278745  688.3115365  654.8653859  -0.5000  -0.5000  -0.5000   -1.5802737   -1.5805327   -1.5825836   1
    6  368.8250157  687.8450098  653.3599615  -0.5000  -0.5000  -0.5000   -1.5802737   -1.5805327   -1.5825836   1
    6  370.2125050  688.4700358  650.8972542  -0.5000  -0.5000  -0.5000   -1.5802737   -1.5805327   -1.5825836   1
    6  371.4199111  690.0389961  649.2308791  -0.5000  -0.5000  -0.5000   -1.5802737   -1.5805327   -1.5825836   1
    6  373.0245320  691.8785926  648.3359211  -0.5000  -0.5000  -0.5000   -1.5802737   -1.5805327   -1.5825836   1
    7  216.2109495  111.5827228   21.4505916  -0.5000   0.5000  -0.5000   -1.5822065    1.5836695   -1.5796909   1
    7  216.7698793  111.5398420   23.2126453  -0.5000   0.5000  -0.5000   -1.5822065    1.5836695   -1.5796909   1
    7  216.8314620  112.6227881   25.4523322  -0.5000   0.5000  -0.5000   -1.5822065    1.5836695   -1.5796909   1
    7  216.5524325  113.2421480   27.8082401  -0.5000   0.5000  -0.5000   -1.5822065    1.5836695   -1.5796909   1
    7  215.6258295  113.2681101   29.9146048  -0.5000   0.5000  -0.5000   -1.5822065    1.5836695   -1.5796909   1
    7  213.5124849  113.1929318   30.9952418  -0.5000   0.5000  -0.5000   -1.5822065    1.5836695   -1.5796909   1
    7  211.0029760  112.6397316   31.3525571  -0.5000   0.5000  -0.5000   -1.5822065    1.5836695   -1.5796909   1
    7  208.6034783  112.2197850   30.7953577  -0.5000   0.5000  -0.5000   -1.5822065    1.5836695   -1.5796909   1
    7  206.5403457  112.2136661   29.7195103  -0.5000   0.5000  -0.5000   -1.5822065    1.5836695   -1.5796909   1
    7  205.4141419  110.9672652   29.4190220  -0.5000   0.5000  -0.5000   -1.5822065    1.5836695   -1.5796909   1
    7  205.7805213  108.8083008   29.2122796  -0.5000   0.5000  -0.5000   -1.5822065    1.5836695   -1.5796909   1
    7  207.1787498  107.2657545   27.8771447  -0.5000   0.5000  -0.5000   -1.5822065    1.5836695   -1.5796909   1
    7  208.6072074  106.1616654   26.1848516  -0.5000   0.5000  -0.5000   -1.5822065    1.5836695   -1.5796909   1
    7  209.9030176  104.2523934   25.7277277  -0.5000   0.5000  -0.5000   -1.5822065    1.5836695   -1.5796909   1
    7  210.5932126  102.3244521   25.8910743  -0.5000   0.5000  -0.5000   -1.5822065    1.5836695   -1.5796909   1
    7  210.8482870  102.7989931   25.3494792  -0.5000   0.5000  -0.5000   -1.5822065    1.5836695   -1.5796909   1
    7  211.4481692  104.5922303   24.2447203  -0.5000   0.5000  -0.5000   -1.5822065    1.5836695   -1.5796909   1
    7  212.7587803  106.0850856   23.4913425  -0.5000   0.5000  -0.5000   -1.5822065    1.5836695   -1.5796909   1
    7  214.5821763  107.9016230   23.3533890  -0.5000   0.5000  -0.5000   -1.5822065    1.5836695   -1.5796909   1
    7  215.7090670  110.0749569   23.0919954  -0.5000   0.5000  -0.5000   -1.5822065    1.5836695   -1.5796909   1
    7  215.8770395  111.4057593   22.3211110  -0.5000   0.5000  -0.5000   -1.5822065    1.5836695   -1.5796909   1
    7  216.2109494  111.5827229   21.4505915  -0.5000   0.5000  -0.5000   -1.5822065    1.5836695   -1.5796909   1
    8  167.3882868  503.2187039   61.1795122   0.5000   0.5000  -0.5000    1.5819281    1.5841318   -1.5815649   1
    8  169.6408185  503.1701722   61.2109195   0.5000   0.5000  -0.5000    1.5819281    1.5841318   -1.5815649   1
    8  171.2088268  502.6515592   59.9064333   0.5000   0.5000  -0.5000    1.5819281    1.5841318   -1.5815649   1
    8  171.9911901  501.4653028   58.4547002   0.5000   0.5000  -0.5000    1.5819281    1.5841318   -1.5815649   1
    8  172.7920278  499.4638544   57.5798438   0.5000   0.5000  -0.5000    1.5819281    1.5841318   -1.5815649   1
    8  173.5477767  497.0393602   57.1706130   0.5000   0.5000  -0.5000    1.5819281    1.5841318   -1.5815649   1
    8  174.1857305  495.0755222   57.4820197   0.5000   0.5000  -0.5000    1.5819281    1.5841318   -1.5815649   1
    8  175.3378010  494.5419107   58.3417180   0.5000   0.5000  -0.5000    1.5819281    1.5841318   -1.5815649   1
    8  176.6754239  494.8934424   59.5543010   0.5000   0.5000  -0.5000    1.5819281    1.5841318   -1.5815649   1
    8  177.2074234  495.9489369   61.0927457   0.5000   0.5000  -0.5000    1.5819281    1.5841318   -1.5815649   1
    8  177.2922830  497.5871100   62.7317731   0.5000   0.5000  -0.5000    1.5819281    1.5841318   -1.5815649   1
    8  177.5693164  499.2092414   64.4185211   0.5000   0.5000  -0.5000    1.5819281    1.5841318   -1.5815649   1
    8  177.2857309  501.0900691   65.1917993   0.5000   0.5000  -0.5000    1.5819281    1.5841318   -1.5815649   1
    8  176.0377300  502.8869220   65.0910900   0.5000   0.5000  -0.5000    1.5819281    1.5841318   -1.5815649   1
    8  174.2964216  504.0679617   64.8045098   0.5000   0.5000  -0.5000    1.5819281    1.5841318   -1.5815649   1
    8  172.3254282  504.3033436   63.8043483   0.5000   0.5000  -0.5000    1.5819281    1.5841318   -1.5815649   1
    8  170.0352814  503.8372737   62.4481637   0.5000   0.5000  -0.5000    1.5819281    1.5841318   -1.5815649   1
    8  167.3882868  503.2187038   61.1795123   0.5000   0.5000  -0.5000    1.5819281    1.5841318   -1.5815649   1
    9  609.6003347  657.5759250  630.9739014  -0.5000  -0.5000  -0.5000   -1.5802737   -1.5805327   -1.5825836   0
    9  617.6275901  662.3147757  632.1164288  -0.5000  -0.5000  -0.5000   -1.5802737   -1.5805327   -1.5825836   0
    9  620.8320028  663.1388018  633.4171741  -0.5000  -0.5000  -0.5000   -1.5802737   -1.5805327   -1.5825836   0
    9  622.0010386  662.0127404  635.0857442  -0.5000  -0.5000  -0.5000   -1.5802737   -1.5805327   -1.5825836   0
    9  623.7699483  661.2669674  635.7131151  -0.5000  -0.5000  -0.5000   -1.5802737   -1.5805327   -1.5825836   0
    9  626.0602152  661.3155266  635.8250283  -0.5000  -0.5000  -0.5000   -1.5802737   -1.5805327   -1.5825836   0
    9  628.7488101  662.0260483  636.6612453  -0.5000  -0.5000  -0.5000   -1.5802737   -1.5805327   -1.5825836   0
    9  631.4209000  662.9169979  637.0810719  -0.5000  -0.5000  -0.5000   -1.5802737   -1.5805327   -1.5825836   0
    9  633.3452420  663.8038916  636.7694702  -0.5000  -0.5000  -0.5000   -1.5802737   -1.5805327   -1.5825836   0
    9  634.7290574  664.5268551  637.2670178  -0.5000  -0.5000  -0.5000   -1.5802737   -1.5805327   -1.5825836   0
    9  636.2842619  664.3705998  638.2215703  -0.5000  -0.5000  -0.5000   -1.5802737   -1.5805327   -1.5825836   0
    9  638.0476853  663.3428708  638.8073468  -0.5000  -0.5000  -0.5000   -1.5802737   -1.5805327   -1.5825836   0
    9  639.9760059  662.2741150  639.2097339  -0.5000  -0.5000  -0.5000   -1.5802737   -1.5805327   -1.5825836   0
    9  642.2452857  661.8127177  639.5118589  -0.5000  -0.5000  -0.5000   -1.5802737   -1.5805327   -1.5825836   0
    9  644.5854786  662.0726601  640.2860495  -0.5000  -0.5000  -0.5000   -1.5802737   -1.5805327   -1.5825836   0
    9  646.8060906  662.2659064  641.2312186  -0.5000  -0.5000  -0.5000   -1.5802737   -1.5805327   -1.5825836   0
    9  648.9685283  661.8057414  641.4096239  -0.5000  -0.5000  -0.5000   -1.5802737   -1.5805327   -1.5825836   0
    9  650.8864846  661.5506800  641.1779569  -0.5000  -0.5000  -0.5000   -1.5802737   -1.5805327   -1.5825836   0
    9  652.4169645  662.1399492  641.3694915  -0.5000  -0.5000  -0.5000   -1.5802737   -1.5805327   -1.5825836   0
    9  653.8025207  663.0739931  641.8298677  -0.5000  -0.5000  -0.5000   -1.5802737   -1.5805327   -1.5825836   0
    9  655.4939990  663.6779042  642.2834141  -0.5000  -0.5000  -0.5000   -1.5802737   -1.5805327   -1.5825836   0
    9  657.7573151  663.2031345  642.8708692  -0.5000  -0.5000  -0.5000   -1.5802737   -1.5805327   -1.5825836   0
    9  660.0791994  662.1694234  643.2168570  -0.5000  -0.5000  -0.5000   -1.5802737   -1.5805327   -1.5825836   0
    9  661.6349061  662.0208170  644.0136845  -0.5000  -0.5000  -0.5000   -1.5802737   -1.5805327   -1.5825836   0
    9  662.7263604  662.3879231  646.0434547  -0.5000  -0.5000  -0.5000   -1.5802737   -1.5805327   -1.5825836   0
    9  663.8612332  661.7511655  647.7870168  -0.5000  -0.5000  -0.5000   -1.5802737   -1.5805327   -1.5825836   0
    9  664.5623827  660.4576117  649.2855861  -0.5000  -0.5000  -0.5000   -1.5802737   -1.5805327   -1.5825836   0
    9  664.8857277  659.5137170  651.3201411  -0.5000  -0.5000  -0.5000   -1.5802737   -1.5805327   -1.5825836   0
    9  665.5309805  658.5778371  652.8322692  -0.5000  -0.5000  -0.5000   -1.5802737   -1.5805327   -1.5825836   0
    9  666.3893854  657.3796482  653.9208422  -0.5000  -0.5000  -0.5000   -1.5802737   -1.5805327   -1.5825836   0
    9  667.6695355  656.2375067  654.8063223  -0.5000  -0.5000  -0.5000   -1.5802737   -1.5805327   -1.5825836   0
    9  670.0194700  655.6697808  655.1844794  -0.5000  -0.5000  -0.5000   -1.5802737   -1.5805327   -1.5825836   0
    9  673.0668554  655.6229636  654.9695427  -0.5000  -0.5000  -0.5000   -1.5802737   -1.5805327   -1.5825836   0
    9  675.7713554  655.8296369  654.0386815  -0.5000  -0.5000  -0.5000   -1.5802737   -1.5805327   -1.5825836   0
    9  677.4767677  656.7036244  652.9154967  -0.5000  -0.5000  -0.5000   -1.5802737   -1.5805327   -1.5825836   0
    9  678.5267295  658.1264667  651.9249503  -0.5000  -0.5000  -0.5000   -1.5802737   -1.5805327   -1.5825836   0
    9  679.4568011  659.3947210  650.8670452  -0.5000  -0.5000  -0.5000   -1.5802737   -1.5805327   -1.5825836   0
    9  680.2151141  660.6399190  649.5350771  -0.5000  -0.5000  -0.5000   -1.5802737   -1.5805327   -1.5825836   0
    9  680.6328875  662.6956093  648.0358163  -0.5000  -0.5000  -0.5000   -1.5802737   -1.5805327   -1.5825836   0
    9  680.2718061  664.7359125  646.6417530  -0.5000  -0.5000  -0.5000   -1.5802737   -1.5805327   -1.5825836   0
    9  679.4080934  664.9814894  645.1028559  -0.5000  -0.5000  -0.5000   -1.5802737   -1.5805327   -1.5825836   0
    9  679.8262706  664.5456650  644.1825968  -0.5000  -0.5000  -0.5000   -1.5802737   -1.5805327   -1.5825836   0
    9  681.8051511  664.5380563  644.7146618  -0.5000  -0.5000  -0.5000   -1.5802737   -1.5805327   -1.5825836   0
    9  683.5850285  664.3532900  645.9837618  -0.5000  -0.5000  -0.5000   -1.5802737   -1.5805327   -1.5825836   0
    9  684.7518623  663.8989448  647.3510992  -0.5000  -0.5000  -0.5000   -1.5802737   -1.5805327   -1.5825836   0
    9  686.0558515  663.3863120  648.4837980  -0.5000  -0.5000  -0.5000   -1.5802737   -1.5805327   -1.5825836   0
    9  687.6988945  663.5551253  649.4199391  -0.5000  -0.5000  -0.5000   -1.5802737   -1.5805327   -1.5825836   0
    9  689.7795908  664.0140952  649.6523213  -0.5000  -0.5000  -0.5000   -1.5802737   -1.5805327   -1.5825836   0
    9  692.0805612  664.3821068  649.7630837  -0.5000  -0.5000  -0.5000   -1.5802737   -1.5805327   -1.5825836   0
    9  693.5833144  664.6842826  651.0516363  -0.5000  -0.5000  -0.5000   -1.5802737   -1.5805327   -1.5825836   0
    9  694.1549368  663.8356065  652.5607720  -0.5000  -0.5000  -0.5000   -1.5802737   -1.5805327   -1.5825836   0
    9  695.0931972  662.2656600  653.4527728  -0.5000  -0.5000  -0.5000   -1.5802737   -1.5805327   -1.5825836   0
    9  696.9959800  661.2371629  654.0107728  -0.5000  -0.5000  -0.5000   -1.5802737   -1.5805327   -1.5825836   0
    9  699.2618850  661.1824222  654.9473143  -0.5000  -0.5000  -0.5000   -1.5802737   -1.5805327   -1.5825836   0
    9  700.6832518  661.4116631  656.6959556  -0.5000  -0.5000  -0.5000   -1.5802737   -1.5805327   -1.5825836   0
    9  700.4610090  660.9602432  658.7330828  -0.5000  -0.5000  -0.5000   -1.5802737   -1.5805327   -1.5825836   0
    9  699.7058021  660.3549313  661.0405845  -0.5000  -0.5000  -0.5000   -1.5802737   -1.5805327   -1.5825836   0
    9  699.6006619  659.5995170  663.4100953  -0.5000  -0.5000  -0.5000   -1.5802737   -1.5805327   -1.5825836   0
    9  699.5637284  658.6631569  665.3297622  -0.5000  -0.5000  -0.5000   -1.5802737   -1.5805327   -1.5825836   0
    9  698.7468823  658.2817112  667.4636414  -0.5000  -0.5000  -0.5000   -1.5802737   -1.5805327   -1.5825836   0
    9  697.8702489  658.1198471  669.6720914  -0.5000  -0.5000  -0.5000   -1.5802737   -1.5805327   -1.5825836   0
    9  698.5578586  657.6353561  671.0778189  -0.5000  -0.5000  -0.5000   -1.5802737   -1.5805327   -1.5825836   0
    9  700.3202862  656.7149163  672.1002136  -0.5000  -0.5000  -0.5000   -1.5802737   -1.5805327   -1.5825836   0
    9  702.0495223  655.7114067  673.2627701  -0.5000  -0.5000  -0.5000   -1.5802737   -1.5805327   -1.5825836   0