ITEM: TIMESTEP
0
ITEM: NUMBER OF ATOMS
11024
ITEM: BOX BOUNDS pp pp pp 
0.0 696.268867
0.0 696.626558
0.0 697.562997
ITEM: ATOMS id x y z tbx tby tbz sbx sby sbz loop
    0  297.1086072  631.9377857  278.4791429   0.5000   0.5000  -0.5000    1.5820326    1.5837102   -1.5824991   0
    0  297.2785164  631.8168432  281.9288191   0.5000   0.5000  -0.5000    1.5820326    1.5837102   -1.5824991   0
    0  297.0384737  633.6346220  283.1561222   0.5000   0.5000  -0.5000    1.5820326    1.5837102   -1.5824991   0
    0  296.4153197  635.8081673  282.2477165   0.5000   0.5000  -0.5000    1.5820326    1.5837102   -1.5824991   0
    0  295.7310854  636.9498563  280.2399765   0.5000   0.5000  -0.5000    1.5820326    1.5837102   -1.5824991   0
    0  294.8378468  637.3821062  278.6808047   0.5000   0.5000  -0.5000    1.5820326    1.5837102   -1.5824991   0
    0  294.2481243  636.6067808  277.5682376   0.5000   0.5000  -0.5000    1.5820326    1.5837102   -1.5824991   0
    0  295.0705218  634.6342248  277.0702929   0.5000   0.5000  -0.5000    1.5820326    1.5837102   -1.5824991   0
    0  297.1086072  631.9377857  278.4791429   0.5000   0.5000  -0.5000    1.5820326    1.5837102   -1.5824991   0
    1  618.5219410  542.2812961   11.6053869  -0.5000   0.5000   0.5000   -1.5823458    1.5809098    1.5823081   0
    1  616.4217567  538.4660467    9.9419372  -0.5000   0.5000   0.5000   -1.5823458    1.5809098    1.5823081   0
    1  615.4185498  537.5336850    8.0144137  -0.5000   0.5000   0.5000   -1.5823458    1.5809098    1.5823081   0
    1  614.9009433  538.1854650    5.6674077  -0.5000   0.5000   0.5000   -1.5823458    1.5809098    1.5823081   0
    1  614.1088614  538.8773431    3.6362196  -0.5000   0.5000   0.5000   -1.5823458    1.5809098    1.5823081   0
    1  613.7466927  540.0476921    1.8705270  -0.5000   0.5000   0.5000   -1.5823458    1.5809098    1.5823081   0
    1  614.5777932  541.3890865   -0.4454413  -0.5000   0.5000   0.5000   -1.5823458    1.5809098    1.5823081   0
    1  615.5408909  542.1748416   -1.8917295  -0.5000   0.5000   0.5000   -1.5823458    1.5809098    1.5823081   0
    1  615.4271876  542.9280890   -0.9931141  -0.5000   0.5000   0.5000   -1.5823458    1.5809098    1.5823081   0
    1  615.7051013  544.1952544    0.5506998  -0.5000   0.5000   0.5000   -1.5823458    1.5809098    1.5823081   0
    1  616.8809043  544.9355703    1.5850229  -0.5000   0.5000   0.5000   -1.5823458    1.5809098    1.5823081   0
    1  617.5182626  544.4887259    3.2530970  -0.5000   0.5000   0.5000   -1.5823458    1.5809098    1.5823081   0
    1  617.8115662  544.1757047    6.0616780  -0.5000   0.5000   0.5000   -1.5823458    1.5809098    1.5823081   0
    1  618.4866602  544.6675804    8.6040374  -0.5000   0.5000   0.5000   -1.5823458    1.5809098    1.5823081   0
    1  619.5321794  545.3962671    9.9847651  -0.5000   0.5000   0.5000   -1.5823458    1.5809098    1.5823081   0
    1  620.0038098  544.9312708   10.8585471  -0.5000   0.5000   0.5000   -1.5823458    1.5809098    1.5823081   0
    1  618.5219410  542.2812961   11.6053869  -0.5000   0.5000   0.5000   -1.5823458    1.5809098    1.5823081   0
    2  429.1062727  317.5850909  611.0939773  -0.5000  -0.5000  -0.5000   -1.5821784   -1.5805015   -1.5820555   0
    2  427.8015302  318.4948243  614.5464308  -0.5000  -0.5000  -0.5000   -1.5821784   -1.5805015   -1.5820555   0
    2  427.5985789  318.1293839  616.9530076  -0.5000  -0.5000  -0.5000   -1.5821784   -1.5805015   -1.5820555   0
    2  427.5220121  317.2901598  619.4957835  -0.5000  -0.5000  -0.5000   -1.5821784   -1.5805015   -1.5820555   0
    2  427.5882425  316.4133615  622.2026578  -0.5000  -0.5000  -0.5000   -1.5821784   -1.5805015   -1.5820555   0
    2  428.2134248  314.8238100  623.3852682  -0.5000  -0.5000  -0.5000   -1.5821784   -1.5805015   -1.5820555   0
    2  428.7185043  312.3729199  623.5530164  -0.5000  -0.5000  -0.5000   -1.5821784   -1.5805015   -1.5820555   0
    2  429.2974161  309.7441264  624.1092512  -0.5000  -0.5000  -0.5000   -1.5821784   -1.5805015   -1.5820555   0
    2  430.3836743  307.5736084  624.9671490  -0.5000  -0.5000  -0.5000   -1.5821784   -1.5805015   -1.5820555   0
    2  431.5685113  305.9474134  624.8692880  -0.5000  -0.5000  -0.5000   -1.5821784   -1.5805015   -1.5820555   0
    2  432.6661754  305.2124971  623.1810687  -0.5000  -0.5000  -0.5000   -1.5821784   -1.5805015   -1.5820555   0
    2  433.2315629  305.1689971  620.4078933  -0.5000  -0.5000  -0.5000   -1.5821784   -1.5805015   -1.5820555   0
    2  433.2732835  305.0529099  617.1079049  -0.5000  -0.5000  -0.5000   -1.5821784   -1.5805015   -1.5820555   0
    2  433.2044656  305.4320152  614.3583753  -0.5000  -0.5000  -0.5000   -1.5821784   -1.5805015   -1.5820555   0
    2  433.1383459  306.6795787  612.6088660  -0.5000  -0.5000  -0.5000   -1.5821784   -1.5805015   -1.5820555   0
    2  433.0724878  308.1799442  610.7987912  -0.5000  -0.5000  -0.5000   -1.5821784   -1.5805015   -1.5820555   0
    2  432.8863264  310.5380870  609.3077893  -0.5000  -0.5000  -0.5000   -1.5821784   -1.5805015   -1.5820555   0
    2  432.6555965  313.4342866  608.6431943  -0.5000  -0.5000  -0.5000   -1.5821784   -1.5805015   -1.5820555   0
    2  432.1506019  315.1764190  608.0469821  -0.5000  -0.5000  -0.5000   -1.5821784   -1.5805015   -1.5820555   0
    2  430.9812782  316.1357752  608.5705728  -0.5000  -0.5000  -0.5000   -1.5821784   -1.5805015   -1.5820555   0
    2  429.1062727  317.5850909  611.0939773  -0.5000  -0.5000  -0.5000   -1.5821784   -1.5805015   -1.5820555   0
    3  536.1736428  346.3299285  596.4633570  -0.5000  -0.5000  -0.5000   -1.5821784   -1.5805015   -1.5820555   0
    3  538.6914097  344.9631118  594.8028996  -0.5000  -0.5000  -0.5000   -1.5821784   -1.5805015   -1.5820555   0
    3  541.1330440  343.9404032  594.6041919  -0.5000  -0.5000  -0.5000   -1.5821784   -1.5805015   -1.5820555   0
    3  543.0023870  343.0731068  594.8426801  -0.5000  -0.5000  -0.5000   -1.5821784   -1.5805015   -1.5820555   0
    3  544.6454596  341.9343552  594.6194624  -0.5000  -0.5000  -0.5000   -1.5821784   -1.5805015   -1.5820555   0
    3  546.5757886  341.1316579  594.6583477  -0.5000  -0.5000  -0.5000   -1.5821784   -1.5805015   -1.5820555   0
    3  548.5434223  341.2135112  594.7956500  -0.5000  -0.5000  -0.5000   -1.5821784   -1.5805015   -1.5820555   0
    3  550.4073499  341.2934629  594.0193093  -0.5000  -0.5000  -0.5000   -1.5821784   -1.5805015   -1.5820555   0
    3  552.5616099  340.8158395  593.4798327  -0.5000  -0.5000  -0.5000   -1.5821784   -1.5805015   -1.5820555   0
    3  554.9276540  340.2603963  593.4575575  -0.5000  -0.5000  -0.5000   -1.5821784   -1.5805015   -1.5820555   0
    3  557.4340277  340.4817130  592.9093663  -0.5000  -0.5000  -0.5000   -1.5821784   -1.5805015   -1.5820555   0
    3  559.5482715  341.1569683  591.7149807  -0.5000  -0.5000  -0.5000   -1.5821784   -1.5805015   -1.5820555   0
    3  561.0068222  340.9135950  590.5177855  -0.5000  -0.5000  -0.5000   -1.5821784   -1.5805015   -1.5820555   0
    3  562.6053081  340.2117748  590.5694479  -0.5000  -0.5000  -0.5000   -1.5821784   -1.5805015   -1.5820555   0
    3  564.1674592  339.4228784  591.5887291  -0.5000  -0.5000  -0.5000   -1.5821784   -1.5805015   -1.5820555   0
    3  565.5902055  338.1916573  592.6359166  -0.5000  -0.5000  -0.5000   -1.5821784   -1.5805015   -1.5820555   0
    3  568.0509960  337.6555486  593.1521071  -0.5000  -0.5000  -0.5000   -1.5821784   -1.5805015   -1.5820555   0
    3  571.0166285  338.4181643  592.7851574  -0.5000  -0.5000  -0.5000   -1.5821784   -1.5805015   -1.5820555   0
    3  573.3341919  339.5270046  592.4327428  -0.5000  -0.5000  -0.5000   -1.5821784   -1.5805015   -1.5820555   0
    3  575.8031816  340.1220727  592.5596122  -0.5000  -0.5000  -0.5000   -1.5821784   -1.5805015   -1.5820555   0
    3  578.4319033  340.1483674  592.5868981  -0.5000  -0.5000  -0.5000   -1.5821784   -1.5805015   -1.5820555   0
    3  580.5682543  340.2479431  592.8861959  -0.5000  -0.5000  -0.5000   -1.5821784   -1.5805015   -1.5820555   0
    3  582.3370251  340.1928540  594.0893682  -0.5000  -0.5000  -0.5000   -1.5821784   -1.5805015   -1.5820555   0
    3  584.2876110  339.9556384  595.1877878  -0.5000  -0.5000  -0.5000   -1.5821784   -1.5805015   -1.5820555   0
    3  587.0698222  341.4840334  595.1601556  -0.5000  -0.5000  -0.5000   -1.5821784   -1.5805015   -1.5820555   0
    4  233.8747291   93.4715084   58.7840666  -0.5000  -0.5000  -0.5000   -1.5821784   -1.5805015   -1.5820555   0
    4  233.2529361   92.1767024   61.2756464  -0.5000  -0.5000  -0.5000   -1.5821784   -1.5805015   -1.5820555   0
    4  232.4161396   91.3095533   62.4929519  -0.5000  -0.5000  -0.5000   -1.5821784   -1.5805015   -1.5820555   0
    4  231.1103468   90.4073099   63.3437849  -0.5000  -0.5000  -0.5000   -1.5821784   -1.5805015   -1.5820555   0
    4  229.8363638   89.2142945   64.6173681  -0.5000  -0.5000  -0.5000   -1.5821784   -1.5805015   -1.5820555   0
    4  228.6647953   88.5434571   66.0379524  -0.5000  -0.5000  -0.5000   -1.5821784   -1.5805015   -1.5820555   0
    4  227.4341079   89.0656286   67.1789375  -0.5000  -0.5000  -0.5000   -1.5821784   -1.5805015   -1.5820555   0
    4  226.1594601   89.9877385   68.6038169  -0.5000  -0.5000  -0.5000   -1.5821784   -1.5805015   -1.5820555   0
    4  224.8084040   90.1008527   70.6651171  -0.5000  -0.5000  -0.5000   -1.5821784   -1.5805015   -1.5820555   0
    4  224.0634967   89.9042524   72.7396365  -0.5000  -0.5000  -0.5000   -1.5821784   -1.5805015   -1.5820555   0
    4  223.6517660   90.8161371   74.2068810  -0.5000  -0.5000  -0.5000   -1.5821784   -1.5805015   -1.5820555   0
    4  223.0406343   92.8659946   74.5815811  -0.5000  -0.5000  -0.5000   -1.5821784   -1.5805015   -1.5820555   0
    4  222.4782121   95.1498205   74.1364963  -0.5000  -0.5000  -0.5000   -1.5821784   -1.5805015   -1.5820555   0
    4  221.7495151   97.7607757   73.6850767  -0.5000  -0.5000  -0.5000   -1.5821784   -1.5805015   -1.5820555   0
    4  221.0866268  100.6518394   73.8128649  -0.5000  -0.5000  -0.5000   -1.5821784   -1.5805015   -1.5820555   0
    4  220.6205423  102.5911214   74.4067325  -0.5000  -0.5000  -0.5000   -1.5821784   -1.5805015   -1.5820555   0
    4  219.8000259  103.1907993   75.2524136  -0.5000  -0.5000  -0.5000   -1.5821784   -1.5805015   -1.5820555   0
    4  218.4155893  103.0611063   76.5298041  -0.5000  -0.5000  -0.5000   -1.5821784   -1.5805015   -1.5820555   0
    4  216.6093225  102.9855104   77.2636272  -0.5000  -0.5000  -0.5000   -1.5821784   -1.5805015   -1.5820555   0
    4  215.1665758  103.2473537   76.3921589  -0.5000  -0.5000  -0.5000   -1.5821784   -1.5805015   -1.5820555   0
    4  215.0948109  104.1654603   75.2139225  -0.5000  -0.5000  -0.5000   -1.5821784   -1.5805015   -1.5820555   0
    4  215.9258829  105.8822312   74.8367144  -0.5000  -0.5000  -0.5000   -1.5821784   -1.5805015   -1.5820555   0
    4  216.2524567  107.3891758   74.1482288  -0.5000  -0.5000  -0.5000   -1.5821784   -1.5805015   -1.5820555   0
    4  216.4318826  108.4304094   72.8612335  -0.5000  -0.5000  -0.5000   -1.5821784   -1.5805015   -1.5820555   0
    4  217.6297507  109.3673902   71.4667508  -0.5000  -0.5000  -0.5000   -1.5821784   -1.5805015   -1.5820555   0
    4  218.8442366  110.3462441   69.7974592  -0.5000  -0.5000  -0.5000   -1.5821784   -1.5805015   -1.5820555   0
    4  219.2280198  111.7736265   68.0394574  -0.5000  -0.5000  -0.5000   -1.5821784   -1.5805015   -1.5820555   0
    4  219.4345646  113.4459458   66.5745079  -0.5000  -0.5000  -0.5000   -1.5821784   -1.5805015   -1.5820555   0
    4  219.0198921  115.0807503   65.3723552  -0.5000  -0.5000  -0.5000   -1.5821784   -1.5805015   -1.5820555   0
    4  217.8748091  116.5289505   64.0105477  -0.5000  -0.5000  -0.5000   -1.5821784   -1.5805015   -1.5820555   0
    4  216.8760514  116.7952520   62.7088345  -0.5000  -0.5000  -0.5000   -1.5821784   -1.5805015   -1.5820555   0
    4  217.0889967  115.7457957   62.5207380  -0.5000  -0.5000  -0.5000   -1.5821784   -1.5805015   -1.5820555   0
    4  219.1422955  115.0440730   63.0235295  -0.5000  -0.5000  -0.5000   -1.5821784   -1.5805015   -1.5820555   0
    4  221.5304539  114.9624477   63.2524626  -0.5000  -0.5000  -0.5000   -1.5821784   -1.5805015   -1.5820555   0
    4  223.5368883  114.3538894   63.3521134  -0.5000  -0.5000  -0.5000   -1.5821784   -1.5805015   -1.5820555   0
    4  225.6217863  113.4000939   63.0519349  -0.5000  -0.5000  -0.5000   -1.5821784   -1.5805015   -1.5820555   0
    4  227.2802264  112.4073189   62.0898726  -0.5000  -0.5000  -0.5000   -1.5821784   -1.5805015   -1.5820555   0
    4  228.5586167  111.5765585   60.7016703  -0.5000  -0.5000  -0.5000   -1.5821784   -1.5805015   -1.5820555   0
    4  229.8886036  111.3779022   59.2379006  -0.5000  -0.5000  -0.5000   -1.5821784   -1.5805015   -1.5820555   0
    4  231.5500816  110.7321565   57.6114727  -0.5000  -0.5000  -0.5000   -1.5821784   -1.5805015   -1.5820555   0
    4  234.0094536  108.2716282   55.6165114  -0.5000  -0.5000  -0.5000   -1.5821784   -1.5805015   -1.5820555   0
    5  167.4313889  302.4595555   66.2364889  -0.5000  -0.5000  -0.5000   -1.5821784   -1.5805015   -1.5820555   0
    5  166.7333278  303.3887795   68.1181490  -0.5000  -0.5000  -0.5000   -1.5821784   -1.5805015   -1.5820555   0
    5  166.4057926  304.4372394   70.3313876  -0.5000  -0.5000  -0.5000   -1.5821784   -1.5805015   -1.5820555   0
    5  166.5311334  305.6343282   72.2584894  -0.5000  -0.5000  -0.5000   -1.5821784   -1.5805015   -1.5820555   0
    5  166.4278511  306.8138057   73.8659073  -0.5000  -0.5000  -0.5000   -1.5821784   -1.5805015   -1.5820555   0
    5  166.0748213  307.3928405   76.8319878  -0.5000  -0.5000  -0.5000   -1.5821784   -1.5805015   -1.5820555   0
    5  166.0563277  307.3297428   79.9861882  -0.5000  -0.5000  -0.5000   -1.5821784   -1.5805015   -1.5820555   0
    5  166.7249200  306.2811495   81.3598071  -0.5000  -0.5000  -0.5000   -1.5821784   -1.5805015   -1.5820555   0
    5  167.6486118  304.3147615   81.8508248  -0.5000  -0.5000  -0.5000   -1.5821784   -1.5805015   -1.5820555   0
    5  167.6276398  303.3541891   82.4068614  -0.5000  -0.5000  -0.5000   -1.5821784   -1.5805015   -1.5820555   0
    5  166.8368463  304.3617689   83.8691902  -0.5000  -0.5000  -0.5000   -1.5821784   -1.5805015   -1.5820555   0
    5  166.1300374  305.7380109   85.9030145  -0.5000  -0.5000  -0.5000   -1.5821784   -1.5805015   -1.5820555   0
    5  165.4968950  306.6462862   87.5193699  -0.5000  -0.5000  -0.5000   -1.5821784   -1.5805015   -1.5820555   0
    5  164.6344039  307.1610286   88.4931170  -0.5000  -0.5000  -0.5000   -1.5821784   -1.5805015   -1.5820555   0
    5  163.4319218  307.2170160   88.9536685  -0.5000  -0.5000  -0.5000   -1.5821784   -1.5805015   -1.5820555   0
    5  162.0379679  307.4495197   89.5728921  -0.5000  -0.5000  -0.5000   -1.5821784   -1.5805015   -1.5820555   0
    5  160.9057942  307.9394902   91.1094737  -0.5000  -0.5000  -0.5000   -1.5821784   -1.5805015   -1.5820555   0
    5  160.5387083  307.5069091   93.5526971  -0.5000  -0.5000  -0.5000   -1.5821784   -1.5805015   -1.5820555   0
    5  160.1337758  306.3073867   95.6974941  -0.5000  -0.5000  -0.5000   -1.5821784   -1.5805015   -1.5820555   0
    5  159.0395024  305.3348300   97.6611917  -0.5000  -0.5000  -0.5000   -1.5821784   -1.5805015   -1.5820555   0
    5  157.7796978  304.2157722   99.4727045  -0.5000  -0.5000  -0.5000   -1.5821784   -1.5805015   -1.5820555   0
    5  156.6256525  303.3449895  100.9879183  -0.5000  -0.5000  -0.5000   -1.5821784   -1.5805015   -1.5820555   0
    5  155.5736424  303.3496629  103.2181186  -0.5000  -0.5000  -0.5000   -1.5821784   -1.5805015   -1.5820555   0
    5  154.0479871  303.8164160  105.1422974  -0.5000  -0.5000  -0.5000   -1.5821784   -1.5805015   -1.5820555   0
    5  152.2155454  304.2954083  106.0850984  -0.5000  -0.5000  -0.5000   -1.5821784   -1.5805015   -1.5820555   0
    5  150.9776133  304.3536289  107.3854333  -0.5000  -0.5000  -0.5000   -1.5821784   -1.5805015   -1.5820555   0
    5  150.1246577  304.1583761  109.6078282  -0.5000  -0.5000  -0.5000   -1.5821784   -1.5805015   -1.5820555   0
    5  149.5960673  304.1112774  111.9361141  -0.5000  -0.5000  -0.5000   -1.5821784   -1.5805015   -1.5820555   0
    5  149.2916665  303.7051287  114.0381146  -0.5000  -0.5000  -0.5000   -1.5821784   -1.5805015   -1.5820555   0
    5  149.3830875  302.6688695  115.7273239  -0.5000  -0.5000  -0.5000   -1.5821784   -1.5805015   -1.5820555   0
    5  150.2601232  300.8855667  116.4384588  -0.5000  -0.5000  -0.5000   -1.5821784   -1.5805015   -1.5820555   0
    5  151.0673916  298.6150919  116.9457596  -0.5000  -0.5000  -0.5000   -1.5821784   -1.5805015   -1.5820555   0
    5  151.2662021  297.2435856  118.1837324  -0.5000  -0.5000  -0.5000   -1.5821784   -1.5805015   -1.5820555   0
    5  151.0001007  296.4964114  119.6214418  -0.5000  -0.5000  -0.5000   -1.5821784   -1.5805015   -1.5820555   0
    5  150.5985001  294.9950715  120.1987142  -0.5000  -0.5000  -0.5000   -1.5821784   -1.5805015   -1.5820555   0
    6  325.4028651  143.3262539  281.4027222   0.5000   0.5000   0.5000    1.5821784    1.5805015    1.5820555   0
    6  325.4331579  144.2170316  283.2241906   0.5000   0.5000   0.5000    1.5821784    1.5805015    1.5820555   0
    6  326.4696021  145.3722084  284.9404447   0.5000   0.5000   0.5000    1.5821784    1.5805015    1.5820555   0
    6  327.6663385  146.6404800  286.6612946   0.5000   0.5000   0.5000    1.5821784    1.5805015    1.5820555   0
    6  328.2854507  147.7774313  288.4464503   0.5000   0.5000   0.5000    1.5821784    1.5805015    1.5820555   0
    6  328.6666436  149.3220607  289.7247522   0.5000   0.5000   0.5000    1.5821784    1.5805015    1.5820555   0
    6  328.4882584  151.0407727  290.6002068   0.5000   0.5000   0.5000    1.5821784    1.5805015    1.5820555   0
    6  327.9990000  152.3919444  291.9582778   0.5000   0.5000   0.5000    1.5821784    1.5805015    1.5820555   0
    7  325.4028651  143.3262539  281.4027222   0.5000  -0.5000  -0.5000    1.5823458   -1.5809098   -1.5823081   0
    7  325.5349514  145.1675061  279.3343652   0.5000  -0.5000  -0.5000    1.5823458   -1.5809098   -1.5823081   0
    7  325.5025802  146.5562523  277.6225686   0.5000  -0.5000  -0.5000    1.5823458   -1.5809098   -1.5823081   0
    7  325.1111790  147.9126512  276.4671825   0.5000  -0.5000  -0.5000    1.5823458   -1.5809098   -1.5823081   0
    7  324.4649662  149.5686803  276.6311594   0.5000  -0.5000  -0.5000    1.5823458   -1.5809098   -1.5823081   0
    7  324.3502527  151.1611133  278.5639223   0.5000  -0.5000  -0.5000    1.5823458   -1.5809098   -1.5823081   0
    7  324.6888811  152.7400742  280.5475849   0.5000  -0.5000  -0.5000    1.5823458   -1.5809098   -1.5823081   0
    7  325.0036896  154.1025954  281.9220404   0.5000  -0.5000  -0.5000    1.5823458   -1.5809098   -1.5823081   0
    7  325.4372802  154.3812358  283.5170379   0.5000  -0.5000  -0.5000    1.5823458   -1.5809098   -1.5823081   0
    7  326.0416236  153.9441813  285.8077810   0.5000  -0.5000  -0.5000    1.5823458   -1.5809098   -1.5823081   0
    7  326.4008784  153.4439573  288.6626869   0.5000  -0.5000  -0.5000    1.5823458   -1.5809098   -1.5823081   0
    7  326.7857604  152.8260083  290.8132439   0.5000  -0.5000  -0.5000    1.5823458   -1.5809098   -1.5823081   0
    7  327.9990000  152.3919444  291.9582778   0.5000  -0.5000  -0.5000    1.5823458   -1.5809098   -1.5823081   0
    8  421.6071667  485.4186667  602.6538333  -0.5000   0.5000   0.5000   -1.5823458    1.5809098    1.5823081   0
    8  423.0389168  483.4356489  604.5205207  -0.5000   0.5000   0.5000   -1.5823458    1.5809098    1.5823081   0
    8  424.0770103  482.4236051  606.8885243  -0.5000   0.5000   0.5000   -1.5823458    1.5809098    1.5823081   0
    8  425.1061699  481.8512173  609.0032771  -0.5000   0.5000   0.5000   -1.5823458    1.5809098    1.5823081   0
    8  425.6505075  481.1564950  611.2230436  -0.5000   0.5000   0.5000   -1.5823458    1.5809098    1.5823081   0
    8  426.0656428  480.6653373  613.7120788  -0.5000   0.5000   0.5000   -1.5823458    1.5809098    1.5823081   0
    8  427.3867286  480.9966387  615.4726365  -0.5000   0.5000   0.5000   -1.5823458    1.5809098    1.5823081   0
    8  429.1931327  481.6734376  616.5988404  -0.5000   0.5000   0.5000   -1.5823458    1.5809098    1.5823081   0
    8  430.5921626  481.9556036  618.2784951  -0.5000   0.5000   0.5000   -1.5823458    1.5809098    1.5823081   0
    8  431.0104871  481.2437306  620.2422853  -0.5000   0.5000   0.5000   -1.5823458    1.5809098    1.5823081   0
    8  430.9329981  479.2634579  621.4649554  -0.5000   0.5000   0.5000   -1.5823458    1.5809098    1.5823081   0
    8  431.3716797  477.5081049  622.6988202  -0.5000   0.5000   0.5000   -1.5823458    1.5809098    1.5823081   0
    8  432.6232204  476.6782848  624.4293904  -0.5000   0.5000   0.5000   -1.5823458    1.5809098    1.5823081   0
    8  434.1657927  475.7210839  625.8734234  -0.5000   0.5000   0.5000   -1.5823458    1.5809098    1.5823081   0
    8  435.5156803  474.4784926  626.7273128  -0.5000   0.5000   0.5000   -1.5823458    1.5809098    1.5823081   0
    8  436.7933039  473.4940217  627.7030907  -0.5000   0.5000   0.5000   -1.5823458    1.5809098    1.5823081   0
    8  438.0801376  472.8146823  629.2601380  -0.5000   0.5000   0.5000   -1.5823458    1.5809098    1.5823081   0
    8  439.3810770  472.3036594  630.7262350  -0.5000   0.5000   0.5000   -1.5823458    1.5809098    1.5823081   0
    8  440.8780851  471.9311103  631.3428814  -0.5000   0.5000   0.5000   -1.5823458    1.5809098    1.5823081   0
    8  442.2068107  472.0854042  631.3351863  -0.5000   0.5000   0.5000   -1.5823458    1.5809098    1.5823081   0
    8  442.5339095  472.6887071  630.5784044  -0.5000   0.5000   0.5000   -1.5823458    1.5809098    1.5823081   0
    8  442.2399170  473.1978367  629.2460078  -0.5000   0.5000   0.5000   -1.5823458    1.5809098    1.5823081   0
    8  442.6026883  474.2398007  628.4205364  -0.5000   0.5000   0.5000   -1.5823458    1.5809098    1.5823081   0
    8  443.7092595  475.8676366  627.8821831  -0.5000   0.5000   0.5000   -1.5823458    1.5809098    1.5823081   0
    8  444.5872408  477.2694050  626.8397617  -0.5000   0.5000   0.5000   -1.5823458    1.5809098    1.5823081   0
    8  444.7019429  478.1017085  624.9519645  -0.5000   0.5000   0.5000   -1.5823458    1.5809098    1.5823081   0
    8  444.4400113  478.4292016  622.5604433  -0.5000   0.5000   0.5000   -1.5823458    1.5809098    1.5823081   0
    8  444.3528889  479.6926457  620.9313705  -0.5000   0.5000   0.5000   -1.5823458    1.5809098    1.5823081   0
    8  445.0892913  482.0718642  620.7157768  -0.5000   0.5000   0.5000   -1.5823458    1.5809098    1.5823081   0
    8  446.7136152  483.3917674  621.5313324  -0.5000   0.5000   0.5000   -1.5823458    1.5809098    1.5823081   0
    8  448.0248341  483.4420885  623.3273018  -0.5000   0.5000   0.5000   -1.5823458    1.5809098    1.5823081   0
    8  448.8391350  483.4054422  625.4941255  -0.5000   0.5000   0.5000   -1.5823458    1.5809098    1.5823081   0
    8  450.3145551  483.3341870  627.2978294  -0.5000   0.5000   0.5000   -1.5823458    1.5809098    1.5823081   0
    8  452.4907199  483.2369681  628.7122238  -0.5000   0.5000   0.5000   -1.5823458    1.5809098    1.5823081   0
    8  454.7932725  483.7254449  629.3157181  -0.5000   0.5000   0.5000   -1.5823458    1.5809098    1.5823081   0
    8  457.2627127  484.7169876  629.4536516  -0.5000   0.5000   0.5000   -1.5823458    1.5809098    1.5823081   0
    8  459.3740711  485.5956939  630.0617708  -0.5000   0.5000   0.5000   -1.5823458    1.5809098    1.5823081   0
    8  461.0311065  486.5590634  630.8148498  -0.5000   0.5000   0.5000   -1.5823458    1.5809098    1.5823081   0
    8  462.7562285  487.2749807  631.4665674  -0.5000   0.5000   0.5000   -1.5823458    1.5809098    1.5823081   0
    8  464.7367614  486.9034447  632.5556194  -0.5000   0.5000   0.5000   -1.5823458    1.5809098    1.5823081   0
    8  467.4219564  486.4393546  633.7573106  -0.5000   0.5000   0.5000   -1.5823458    1.5809098    1.5823081   0
    8  469.7105583  486.7558228  634.8036187  -0.5000   0.5000   0.5000   -1.5823458    1.5809098    1.5823081   0
    8  469.5193250  487.3589928  635.3850219  -0.5000   0.5000   0.5000   -1.5823458    1.5809098    1.5823081   0
    8  467.7839627  488.3694143  634.5158465  -0.5000   0.5000   0.5000   -1.5823458    1.5809098    1.5823081   0
    8  466.6743112  489.4518028  632.8210803  -0.5000   0.5000   0.5000   -1.5823458    1.5809098    1.5823081   0
    8  466.2117135  489.6541294  631.2106414  -0.5000   0.5000   0.5000   -1.5823458    1.5809098    1.5823081   0
    8  465.6819118  488.7289346  629.6374810  -0.5000   0.5000   0.5000   -1.5823458    1.5809098    1.5823081   0
    8  465.0493821  487.9634107  628.3089623  -0.5000   0.5000   0.5000   -1.5823458    1.5809098    1.5823081   0
    8  464.9407876  488.8046266  626.7206978  -0.5000   0.5000   0.5000   -1.5823458    1.5809098    1.5823081   0
    8  465.4933935  490.6354541  624.9545267  -0.5000   0.5000   0.5000   -1.5823458    1.5809098    1.5823081   0
    8  465.8504492  492.4949027  623.6897055  -0.5000   0.5000   0.5000   -1.5823458    1.5809098    1.5823081   0
    8  465.7641973  493.8941565  621.8074436  -0.5000   0.5000   0.5000   -1.5823458    1.5809098    1.5823081   0
    8  465.7208957  495.0741828  619.3167377  -0.5000   0.5000   0.5000   -1.5823458    1.5809098    1.5823081   0
    8  466.0566231  496.7301090  617.7885875  -0.5000   0.5000   0.5000   -1.5823458    1.5809098    1.5823081   0
    8  466.5644676  498.4951128  616.7275230  -0.5000   0.5000   0.5000   -1.5823458    1.5809098    1.5823081   0
    8  466.7713622  499.8995399  615.2229936  -0.5000   0.5000   0.5000   -1.5823458    1.5809098    1.5823081   0
    8  467.1205073  501.2628775  613.7218892  -0.5000   0.5000   0.5000   -1.5823458    1.5809098    1.5823081   0
    8  467.8162703  503.0599062  612.6692606  -0.5000   0.5000   0.5000   -1.5823458    1.5809098    1.5823081   0
    8  468.0447284  504.6175481  611.3272577  -0.5000   0.5000   0.5000   -1.5823458    1.5809098    1.5823081   0
    8  467.9160540  505.5738329  609.4494848  -0.5000   0.5000   0.5000   -1.5823458    1.5809098    1.5823081   0
    8  467.4330582  506.8154998  608.4700128  -0.5000   0.5000   0.5000   -1.5823458    1.5809098    1.5823081   0
    8  465.8006960  507.7899152  608.2613020  -0.5000   0.5000   0.5000   -1.5823458    1.5809098    1.5823081   0
    8  463.8594133  508.1386432  607.6768664  -0.5000   0.5000   0.5000   -1.5823458    1.5809098    1.5823081   0
    8  463.1324020  508.8300417  606.3770119  -0.5000   0.5000   0.5000   -1.5823458    1.5809098    1.5823081   0
    8  463.1526943  509.7244914  604.6772403  -0.5000   0.5000   0.5000   -1.5823458    1.5809098    1.5823081   0
    8  462.4416505  509.9713616  603.4720614  -0.5000   0.5000   0.5000   -1.5823458    1.5809098    1.5823081   0
    8  461.1498758  509.5461708  602.2867554  -0.5000   0.5000   0.5000   -1.5823458    1.5809098    1.5823081   0
    8  459.9074100  509.3253391  600.6236673  -0.5000   0.5000   0.5000   -1.5823458    1.5809098    1.5823081   0
    8  458.0642411  509.3204583  599.0011437  -0.5000   0.5000   0.5000   -1.5823458    1.5809098    1.5823081   0
    8  455.7539508  508.8405418  597.7086238  -0.5000   0.5000   0.5000   -1.5823458    1.5809098    1.5823081   0
    8  454.5832341  507.8994610  597.1777015  -0.5000   0.5000   0.5000   -1.5823458    1.5809098    1.5823081   0
    8  454.1523760  506.6991302  597.7610700  -0.5000   0.5000   0.5000   -1.5823458    1.5809098    1.5823081   0
    8  453.1186076  505.0418725  598.8627616  -0.5000   0.5000   0.5000   -1.5823458    1.5809098    1.5823081   0
    8  452.1586608  502.5905560  599.4679757  -0.5000   0.5000   0.5000   -1.5823458    1.5809098    1.5823081   0
    8  451.0727280  500.2935881  599.4127511  -0.5000   0.5000   0.5000   -1.5823458    1.5809098    1.5823081   0
    8  449.3678613  499.4573450  598.6067485  -0.5000   0.5000   0.5000   -1.5823458    1.5809098    1.5823081   0
    8  447.9236515  499.7812960  597.0101621  -0.5000   0.5000   0.5000   -1.5823458    1.5809098    1.5823081   0
    8  447.0772579  500.5652601  595.2815492  -0.5000   0.5000   0.5000   -1.5823458    1.5809098    1.5823081   0
    8  446.3164924  501.5063590  593.7320675  -0.5000   0.5000   0.5000   -1.5823458    1.5809098    1.5823081   0
    8  445.4716794  502.3159503  591.9999118  -0.5000   0.5000   0.5000   -1.5823458    1.5809098    1.5823081   0
    8  444.9268662  503.4863734  590.1100673  -0.5000   0.5000   0.5000   -1.5823458    1.5809098    1.5823081   0
    8  444.8047319  505.5602867  588.7578479  -0.5000   0.5000   0.5000   -1.5823458    1.5809098    1.5823081   0
    8  445.0761931  508.0263351  588.1282528  -0.5000   0.5000   0.5000   -1.5823458    1.5809098    1.5823081   0
    8  446.0412843  510.2109477  588.1146310  -0.5000   0.5000   0.5000   -1.5823458    1.5809098    1.5823081   0
    8  447.4382992  511.6651262  588.6216676  -0.5000   0.5000   0.5000   -1.5823458    1.5809098    1.5823081   0
    8  448.4159610  512.9679758  589.1981507  -0.5000   0.5000   0.5000   -1.5823458    1.5809098    1.5823081   0
    8  449.2855771  514.6639535  589.2267461  -0.5000   0.5000   0.5000   -1.5823458    1.5809098    1.5823081   0
    8  449.5310200  516.0426332  588.3587396  -0.5000   0.5000   0.5000   -1.5823458    1.5809098    1.5823081   0
    8  448.7890699  516.8485807  587.0209261  -0.5000   0.5000   0.5000   -1.5823458    1.5809098    1.5823081   0
    8  448.4817742  517.5922303  585.0684999  -0.5000   0.5000   0.5000   -1.5823458    1.5809098    1.5823081   0