ITEM: TIMESTEP
0
ITEM: NUMBER OF ATOMS
8401
ITEM: BOX BOUNDS pp pp pp 
0.0 695.876226
0.0 696.547128
0.0 698.061649
ITEM: ATOMS id x y z tbx tby tbz sbx sby sbz loop
    0  564.9491564  194.7987058  418.1310109  -0.5000   0.5000  -0.5000   -1.5819838    1.5842460   -1.5812070   1
    0  564.2926642  193.6564843  417.2101164  -0.5000   0.5000  -0.5000   -1.5819838    1.5842460   -1.5812070   1
    0  563.4916965  191.7308498  416.2666252  -0.5000   0.5000  -0.5000   -1.5819838    1.5842460   -1.5812070   1
    0  563.2146358  189.8659433  414.4037507  -0.5000   0.5000  -0.5000   -1.5819838    1.5842460   -1.5812070   1
    0  563.1490182  188.0416377  412.1753253  -0.5000   0.5000  -0.5000   -1.5819838    1.5842460   -1.5812070   1
    0  563.0844325  186.2266546  410.1551212  -0.5000   0.5000  -0.5000   -1.5819838    1.5842460   -1.5812070   1
    0  563.7300058  185.3962512  408.2649910  -0.5000   0.5000  -0.5000   -1.5819838    1.5842460   -1.5812070   1
    0  565.5953960  185.9998470  407.2924426  -0.5000   0.5000  -0.5000   -1.5819838    1.5842460   -1.5812070   1
    0  567.6234221  187.6767403  407.1878388  -0.5000   0.5000  -0.5000   -1.5819838    1.5842460   -1.5812070   1
    0  568.7997471  189.5516002  406.7649486  -0.5000   0.5000  -0.5000   -1.5819838    1.5842460   -1.5812070   1
    0  569.3790592  191.2395514  406.0439129  -0.5000   0.5000  -0.5000   -1.5819838    1.5842460   -1.5812070   1
    0  569.8240977  192.7414322  406.3394769  -0.5000   0.5000  -0.5000   -1.5819838    1.5842460   -1.5812070   1
    0  570.0316677  193.9431870  408.4220316  -0.5000   0.5000  -0.5000   -1.5819838    1.5842460   -1.5812070   1
    0  569.6823535  195.3083894  410.5132599  -0.5000   0.5000  -0.5000   -1.5819838    1.5842460   -1.5812070   1
    0  569.1653310  197.0264655  411.0945624  -0.5000   0.5000  -0.5000   -1.5819838    1.5842460   -1.5812070   1
    0  568.4842469  197.7901028  411.3595201  -0.5000   0.5000  -0.5000   -1.5819838    1.5842460   -1.5812070   1
    0  567.2771681  196.7947402  412.0846383  -0.5000   0.5000  -0.5000   -1.5819838    1.5842460   -1.5812070   1
    0  566.1151155  195.1511211  413.1569582  -0.5000   0.5000  -0.5000   -1.5819838    1.5842460   -1.5812070   1
    0  565.5320974  193.9777849  414.7743911  -0.5000   0.5000  -0.5000   -1.5819838    1.5842460   -1.5812070   1
    0  565.3117539  193.9593148  416.4920445  -0.5000   0.5000  -0.5000   -1.5819838    1.5842460   -1.5812070   1
    0  564.9491563  194.7987060  418.1310109  -0.5000   0.5000  -0.5000   -1.5819838    1.5842460   -1.5812070   1
    1  201.1755714   48.4257488  410.1016786  -0.5000  -0.5000   0.5000   -1.5822116   -1.5834124    1.5822933   0
    1  201.1924731   48.4853293  406.8472469  -0.5000  -0.5000   0.5000   -1.5822116   -1.5834124    1.5822933   0
    1  201.0308607   47.9746241  403.9779678  -0.5000  -0.5000   0.5000   -1.5822116   -1.5834124    1.5822933   0
    1  200.0513171   47.1471853  402.6004233  -0.5000  -0.5000   0.5000   -1.5822116   -1.5834124    1.5822933   0
    1  198.8680290   46.2517474  401.7504037  -0.5000  -0.5000   0.5000   -1.5822116   -1.5834124    1.5822933   0
    1  198.3327333   45.2561545  399.9539732  -0.5000  -0.5000   0.5000   -1.5822116   -1.5834124    1.5822933   0
    1  197.8976053   44.4571934  397.6901217  -0.5000  -0.5000   0.5000   -1.5822116   -1.5834124    1.5822933   0
    1  196.6922398   43.6583888  396.1219240  -0.5000  -0.5000   0.5000   -1.5822116   -1.5834124    1.5822933   0
    1  195.3392032   42.8911519  395.1473473  -0.5000  -0.5000   0.5000   -1.5822116   -1.5834124    1.5822933   0
    1  194.8019865   42.1798331  393.7173711  -0.5000  -0.5000   0.5000   -1.5822116   -1.5834124    1.5822933   0
    1  194.8654958   40.8047625  392.0209143  -0.5000  -0.5000   0.5000   -1.5822116   -1.5834124    1.5822933   0
    1  194.8444569   38.9613643  390.5564888  -0.5000  -0.5000   0.5000   -1.5822116   -1.5834124    1.5822933   0
    1  194.6377491   37.0895247  389.1372358  -0.5000  -0.5000   0.5000   -1.5822116   -1.5834124    1.5822933   0
    1  195.3699672   35.4299277  388.0471824  -0.5000  -0.5000   0.5000   -1.5822116   -1.5834124    1.5822933   0
    1  197.3357147   34.0183395  387.5773770  -0.5000  -0.5000   0.5000   -1.5822116   -1.5834124    1.5822933   0
    1  198.4124258   32.1449930  387.3161142  -0.5000  -0.5000   0.5000   -1.5822116   -1.5834124    1.5822933   0
    1  197.3286584   30.5146601  386.4461249  -0.5000  -0.5000   0.5000   -1.5822116   -1.5834124    1.5822933   0
    1  195.5392329   29.6119029  385.1910215  -0.5000  -0.5000   0.5000   -1.5822116   -1.5834124    1.5822933   0
    1  194.4825581   28.8935223  383.5869956  -0.5000  -0.5000   0.5000   -1.5822116   -1.5834124    1.5822933   0
    1  193.7556114   27.9464510  381.6017062  -0.5000  -0.5000   0.5000   -1.5822116   -1.5834124    1.5822933   0
    1  192.4234427   26.2824325  380.7321587  -0.5000  -0.5000   0.5000   -1.5822116   -1.5834124    1.5822933   0
    1  190.9261213   25.1595180  380.6476092  -0.5000  -0.5000   0.5000   -1.5822116   -1.5834124    1.5822933   0
    1  190.3259696   25.9272286  380.4395656  -0.5000  -0.5000   0.5000   -1.5822116   -1.5834124    1.5822933   0
    1  189.9936051   27.9948740  381.1829544  -0.5000  -0.5000   0.5000   -1.5822116   -1.5834124    1.5822933   0
    1  189.1661608   29.9135248  383.0109828  -0.5000  -0.5000   0.5000   -1.5822116   -1.5834124    1.5822933   0
    1  187.8837991   31.0847327  384.4932567  -0.5000  -0.5000   0.5000   -1.5822116   -1.5834124    1.5822933   0
    1  186.1381881   32.1060653  385.1644700  -0.5000  -0.5000   0.5000   -1.5822116   -1.5834124    1.5822933   0
    1  184.6899032   33.1508945  385.6594457  -0.5000  -0.5000   0.5000   -1.5822116   -1.5834124    1.5822933   0
    1  183.3673331   33.7795025  386.0054774  -0.5000  -0.5000   0.5000   -1.5822116   -1.5834124    1.5822933   0
    1  180.9256575   33.8943643  386.0120936  -0.5000  -0.5000   0.5000   -1.5822116   -1.5834124    1.5822933   0
    1  177.6880924   34.0210631  385.5776634  -0.5000  -0.5000   0.5000   -1.5822116   -1.5834124    1.5822933   0
    1  175.1100591   34.3065549  384.5851254  -0.5000  -0.5000   0.5000   -1.5822116   -1.5834124    1.5822933   0
    1  173.4247145   34.7324334  383.1958800  -0.5000  -0.5000   0.5000   -1.5822116   -1.5834124    1.5822933   0
    1  172.1567409   34.9818738  382.8027853  -0.5000  -0.5000   0.5000   -1.5822116   -1.5834124    1.5822933   0
    1  170.8604151   34.7043725  383.6866089  -0.5000  -0.5000   0.5000   -1.5822116   -1.5834124    1.5822933   0
    1  168.8294841   34.7462312  384.2175701  -0.5000  -0.5000   0.5000   -1.5822116   -1.5834124    1.5822933   0
    1  165.7903307   34.9225163  384.6796254  -0.5000  -0.5000   0.5000   -1.5822116   -1.5834124    1.5822933   0
    1  162.6540157   34.5794568  385.6484415  -0.5000  -0.5000   0.5000   -1.5822116   -1.5834124    1.5822933   0
    1  160.3409991   34.2097761  386.1068469  -0.5000  -0.5000   0.5000   -1.5822116   -1.5834124    1.5822933   0
    1  158.3830502   34.2900117  386.1269358  -0.5000  -0.5000   0.5000   -1.5822116   -1.5834124    1.5822933   0
    1  156.6404447   34.5263209  387.2725713  -0.5000  -0.5000   0.5000   -1.5822116   -1.5834124    1.5822933   0
    1  155.6285640   34.5386624  388.9833231  -0.5000  -0.5000   0.5000   -1.5822116   -1.5834124    1.5822933   0
    1  155.9084965   35.5861736  389.5011234  -0.5000  -0.5000   0.5000   -1.5822116   -1.5834124    1.5822933   0
    1  157.2785945   37.7116561  389.5054940  -0.5000  -0.5000   0.5000   -1.5822116   -1.5834124    1.5822933   0
    1  158.8305885   39.1041104  390.1145009  -0.5000  -0.5000   0.5000   -1.5822116   -1.5834124    1.5822933   0
    1  160.7882022   39.5152107  391.0132511  -0.5000  -0.5000   0.5000   -1.5822116   -1.5834124    1.5822933   0
    1  163.4548166   39.7818428  391.9656728  -0.5000  -0.5000   0.5000   -1.5822116   -1.5834124    1.5822933   0
    1  166.3727435   40.4450762  392.8716898  -0.5000  -0.5000   0.5000   -1.5822116   -1.5834124    1.5822933   0
    1  168.9464063   41.5667940  393.5010076  -0.5000  -0.5000   0.5000   -1.5822116   -1.5834124    1.5822933   0
    1  170.8385875   42.9188339  394.1772413  -0.5000  -0.5000   0.5000   -1.5822116   -1.5834124    1.5822933   0
    1  172.2207531   44.1427936  395.0771525  -0.5000  -0.5000   0.5000   -1.5822116   -1.5834124    1.5822933   0
    1  173.4533364   45.3567340  395.9969297  -0.5000  -0.5000   0.5000   -1.5822116   -1.5834124    1.5822933   0
    1  174.6243652   46.6449108  397.1247633  -0.5000  -0.5000   0.5000   -1.5822116   -1.5834124    1.5822933   0
    1  175.7499162   47.7676535  398.3438478  -0.5000  -0.5000   0.5000   -1.5822116   -1.5834124    1.5822933   0
    1  177.1184938   48.3287283  399.3353530  -0.5000  -0.5000   0.5000   -1.5822116   -1.5834124    1.5822933   0
    1  178.5339813   48.2027628  400.2608259  -0.5000  -0.5000   0.5000   -1.5822116   -1.5834124    1.5822933   0
    1  180.0736580   47.9800322  401.0341725  -0.5000  -0.5000   0.5000   -1.5822116   -1.5834124    1.5822933   0
    1  182.0616340   48.1436571  401.5265866  -0.5000  -0.5000   0.5000   -1.5822116   -1.5834124    1.5822933   0
    1  184.0629696   48.8304404  401.9793341  -0.5000  -0.5000   0.5000   -1.5822116   -1.5834124    1.5822933   0
    1  185.4358694   49.7238567  403.1222925  -0.5000  -0.5000   0.5000   -1.5822116   -1.5834124    1.5822933   0
    1  186.0276562   50.7003270  404.8837561  -0.5000  -0.5000   0.5000   -1.5822116   -1.5834124    1.5822933   0
    1  186.6586815   52.0271269  406.1939058  -0.5000  -0.5000   0.5000   -1.5822116   -1.5834124    1.5822933   0
    1  187.7397653   53.3154286  407.3063485  -0.5000  -0.5000   0.5000   -1.5822116   -1.5834124    1.5822933   0
    1  189.0279654   53.7580437  408.8120918  -0.5000  -0.5000   0.5000   -1.5822116   -1.5834124    1.5822933   0
    1  190.8591256   53.8633516  410.0256062  -0.5000  -0.5000   0.5000   -1.5822116   -1.5834124    1.5822933   0
    1  192.8692607   54.2287823  410.1576627  -0.5000  -0.5000   0.5000   -1.5822116   -1.5834124    1.5822933   0
    1  195.2314293   54.0924160  411.1177050  -0.5000  -0.5000   0.5000   -1.5822116   -1.5834124    1.5822933   0
    1  199.2652477   53.3957147  415.5416231  -0.5000  -0.5000   0.5000   -1.5822116   -1.5834124    1.5822933   0
    2   35.5804786  572.3261429  688.6542858  -0.5000  -0.5000  -0.5000   -1.5810613   -1.5799815   -1.5819025   0
    2   34.5249765  571.9193847  689.3333125  -0.5000  -0.5000  -0.5000   -1.5810613   -1.5799815   -1.5819025   0
    2   33.5769917  572.4957057  689.2759278  -0.5000  -0.5000  -0.5000   -1.5810613   -1.5799815   -1.5819025   0
    2   31.8438002  572.9261119  689.9033283  -0.5000  -0.5000  -0.5000   -1.5810613   -1.5799815   -1.5819025   0
    2   29.9359524  572.8740235  691.2013315  -0.5000  -0.5000  -0.5000   -1.5810613   -1.5799815   -1.5819025   0
    2   28.7844198  572.1647855  692.6049980  -0.5000  -0.5000  -0.5000   -1.5810613   -1.5799815   -1.5819025   0
    2   28.9061461  571.2565900  693.5928563  -0.5000  -0.5000  -0.5000   -1.5810613   -1.5799815   -1.5819025   0
    2   30.2730751  571.2474516  694.0535341  -0.5000  -0.5000  -0.5000   -1.5810613   -1.5799815   -1.5819025   0
    2   31.7065128  570.9938846  695.1895761  -0.5000  -0.5000  -0.5000   -1.5810613   -1.5799815   -1.5819025   0
    2   33.2754273  570.1503486  696.1122313  -0.5000  -0.5000  -0.5000   -1.5810613   -1.5799815   -1.5819025   0
    2   35.3480589  570.2812449  695.5096413  -0.5000  -0.5000  -0.5000   -1.5810613   -1.5799815   -1.5819025   0
    2   37.0361766  571.4237865  694.5021190  -0.5000  -0.5000  -0.5000   -1.5810613   -1.5799815   -1.5819025   0
    2   37.9431622  571.8817246  693.7763628  -0.5000  -0.5000  -0.5000   -1.5810613   -1.5799815   -1.5819025   0
    2   38.4422142  571.2044286  692.9477857  -0.5000  -0.5000  -0.5000   -1.5810613   -1.5799815   -1.5819025   0
    3  565.3839167  589.0920357  440.5359286  -0.5000  -0.5000   0.5000   -1.5822116   -1.5834124    1.5822933   0
    3  563.1798455  588.2280471  437.7476466  -0.5000  -0.5000   0.5000   -1.5822116   -1.5834124    1.5822933   0
    3  563.9763516  587.2193913  436.0349597  -0.5000  -0.5000   0.5000   -1.5822116   -1.5834124    1.5822933   0
    3  565.8123209  586.5063157  434.5371816  -0.5000  -0.5000   0.5000   -1.5822116   -1.5834124    1.5822933   0
    3  567.2539436  586.1582026  432.3881088  -0.5000  -0.5000   0.5000   -1.5822116   -1.5834124    1.5822933   0
    3  569.0924034  586.0831129  430.2326343  -0.5000  -0.5000   0.5000   -1.5822116   -1.5834124    1.5822933   0
    3  571.0895581  585.8995559  428.9487459  -0.5000  -0.5000   0.5000   -1.5822116   -1.5834124    1.5822933   0
    3  572.9508482  585.3516191  428.3867583  -0.5000  -0.5000   0.5000   -1.5822116   -1.5834124    1.5822933   0
    3  574.9072229  584.9330973  428.0372334  -0.5000  -0.5000   0.5000   -1.5822116   -1.5834124    1.5822933   0
    3  577.0993428  585.1217804  428.0873220  -0.5000  -0.5000   0.5000   -1.5822116   -1.5834124    1.5822933   0
    3  579.4192587  585.4373999  428.6277587  -0.5000  -0.5000   0.5000   -1.5822116   -1.5834124    1.5822933   0
    3  581.5373645  585.4339793  429.0961241  -0.5000  -0.5000   0.5000   -1.5822116   -1.5834124    1.5822933   0
    3  583.5419466  586.1600464  429.1872495  -0.5000  -0.5000   0.5000   -1.5822116   -1.5834124    1.5822933   0
    3  585.0631463  587.0711976  429.1548891  -0.5000  -0.5000   0.5000   -1.5822116   -1.5834124    1.5822933   0
    3  586.2450082  586.3570361  429.2697210  -0.5000  -0.5000   0.5000   -1.5822116   -1.5834124    1.5822933   0
    3  588.5689733  585.0503143  429.5349387  -0.5000  -0.5000   0.5000   -1.5822116   -1.5834124    1.5822933   0
    3  591.1662188  584.0247864  429.8679324  -0.5000  -0.5000   0.5000   -1.5822116   -1.5834124    1.5822933   0
    3  592.4684153  582.6828837  430.2968434  -0.5000  -0.5000   0.5000   -1.5822116   -1.5834124    1.5822933   0
    3  593.6598426  581.5387280  430.7428619  -0.5000  -0.5000   0.5000   -1.5822116   -1.5834124    1.5822933   0
    3  595.2347996  580.5144546  431.0360076  -0.5000  -0.5000   0.5000   -1.5822116   -1.5834124    1.5822933   0
    3  596.5950534  579.1414513  430.7891478  -0.5000  -0.5000   0.5000   -1.5822116   -1.5834124    1.5822933   0
    3  598.5556920  577.9736894  430.3568648  -0.5000  -0.5000   0.5000   -1.5822116   -1.5834124    1.5822933   0
    3  600.9409124  577.1258019  429.8233988  -0.5000  -0.5000   0.5000   -1.5822116   -1.5834124    1.5822933   0
    3  601.9771033  576.2529050  428.4944116  -0.5000  -0.5000   0.5000   -1.5822116   -1.5834124    1.5822933   0
    3  601.9527619  575.1466335  427.0118837  -0.5000  -0.5000   0.5000   -1.5822116   -1.5834124    1.5822933   0
    3  602.4278780  573.7717399  426.1512391  -0.5000  -0.5000   0.5000   -1.5822116   -1.5834124    1.5822933   0
    3  603.6220185  572.6390079  426.0587698  -0.5000  -0.5000   0.5000   -1.5822116   -1.5834124    1.5822933   0
    3  605.0541465  572.2302085  426.4076739  -0.5000  -0.5000   0.5000   -1.5822116   -1.5834124    1.5822933   0
    3  606.5342315  572.7732062  426.9662729  -0.5000  -0.5000   0.5000   -1.5822116   -1.5834124    1.5822933   0
    3  608.0541459  573.8067055  427.9630385  -0.5000  -0.5000   0.5000   -1.5822116   -1.5834124    1.5822933   0
    3  609.4640796  574.8620610  428.9705175  -0.5000  -0.5000   0.5000   -1.5822116   -1.5834124    1.5822933   0
    3  610.3079328  576.1676003  430.2904809  -0.5000  -0.5000   0.5000   -1.5822116   -1.5834124    1.5822933   0
    3  611.3714814  577.1561632  432.1213174  -0.5000  -0.5000   0.5000   -1.5822116   -1.5834124    1.5822933   0
    3  613.1212842  577.4438797  433.8951252  -0.5000  -0.5000   0.5000   -1.5822116   -1.5834124    1.5822933   0
    3  614.7093796  577.5792697  435.5649540  -0.5000  -0.5000   0.5000   -1.5822116   -1.5834124    1.5822933   0
    3  616.8212635  577.4638674  436.6330522  -0.5000  -0.5000   0.5000   -1.5822116   -1.5834124    1.5822933   0
    3  619.2226614  576.4969066  437.2383613  -0.5000  -0.5000   0.5000   -1.5822116   -1.5834124    1.5822933   0
    3  621.1288541  575.1640991  438.2306611  -0.5000  -0.5000   0.5000   -1.5822116   -1.5834124    1.5822933   0
    3  622.7438543  574.4502155  438.9900195  -0.5000  -0.5000   0.5000   -1.5822116   -1.5834124    1.5822933   0
    3  623.9754114  574.0194636  438.5178230  -0.5000  -0.5000   0.5000   -1.5822116   -1.5834124    1.5822933   0
    3  624.9668675  572.6350893  437.5325254  -0.5000  -0.5000   0.5000   -1.5822116   -1.5834124    1.5822933   0
    3  625.4219426  570.6315078  436.6138596  -0.5000  -0.5000   0.5000   -1.5822116   -1.5834124    1.5822933   0
    3  625.2422858  569.1906518  435.5351474  -0.5000  -0.5000   0.5000   -1.5822116   -1.5834124    1.5822933   0
    3  624.5796253  568.1177733  434.6942763  -0.5000  -0.5000   0.5000   -1.5822116   -1.5834124    1.5822933   0
    3  622.8446195  566.4825511  432.9600830  -0.5000  -0.5000   0.5000   -1.5822116   -1.5834124    1.5822933   0
    3  619.7767301  563.6003216  428.7789298  -0.5000  -0.5000   0.5000   -1.5822116   -1.5834124    1.5822933   0
    4  638.8223832  558.3662734  434.2733476  -0.5000  -0.5000   0.5000   -1.5822116   -1.5834124    1.5822933   0
    4  644.5472764  559.9198292  432.8259368  -0.5000  -0.5000   0.5000   -1.5822116   -1.5834124    1.5822933   0
    4  648.0312965  561.0558625  432.3819226  -0.5000  -0.5000   0.5000   -1.5822116   -1.5834124    1.5822933   0
    4  650.0411018  562.5357706  432.2374097  -0.5000  -0.5000   0.5000   -1.5822116   -1.5834124    1.5822933   0
    4  651.1018868  562.9129154  432.6120269  -0.5000  -0.5000   0.5000   -1.5822116   -1.5834124    1.5822933   0
    4  652.0264201  561.6303406  433.5819104  -0.5000  -0.5000   0.5000   -1.5822116   -1.5834124    1.5822933   0
    4  653.4603628  560.2248143  433.7507532  -0.5000  -0.5000   0.5000   -1.5822116   -1.5834124    1.5822933   0
    4  654.8019935  558.8684954  433.0842902  -0.5000  -0.5000   0.5000   -1.5822116   -1.5834124    1.5822933   0
    4  655.4451457  557.2948898  431.8635685  -0.5000  -0.5000   0.5000   -1.5822116   -1.5834124    1.5822933   0
    4  655.0627353  555.8410892  430.4246762  -0.5000  -0.5000   0.5000   -1.5822116   -1.5834124    1.5822933   0
    4  653.4135708  554.9082965  429.4912545  -0.5000  -0.5000   0.5000   -1.5822116   -1.5834124    1.5822933   0
    4  651.3301695  554.6003818  428.3645400  -0.5000  -0.5000   0.5000   -1.5822116   -1.5834124    1.5822933   0
    4  648.6917320  554.1237348  426.9114931  -0.5000  -0.5000   0.5000   -1.5822116   -1.5834124    1.5822933   0
    4  646.7551153  553.6776353  425.9016746  -0.5000  -0.5000   0.5000   -1.5822116   -1.5834124    1.5822933   0
    4  647.7781683  554.1494239  425.8188391  -0.5000  -0.5000   0.5000   -1.5822116   -1.5834124    1.5822933   0
    4  649.4721336  555.2861841  427.0214089  -0.5000  -0.5000   0.5000   -1.5822116   -1.5834124    1.5822933   0
    4  649.5201367  556.4446295  428.6542738  -0.5000  -0.5000   0.5000   -1.5822116   -1.5834124    1.5822933   0
    4  648.3340982  557.4109711  430.0123488  -0.5000  -0.5000   0.5000   -1.5822116   -1.5834124    1.5822933   0
    4  647.2307230  558.2065886  431.2459275  -0.5000  -0.5000   0.5000   -1.5822116   -1.5834124    1.5822933   0
    4  644.8118959  558.5610612  432.4469836  -0.5000  -0.5000   0.5000   -1.5822116   -1.5834124    1.5822933   0
    4  638.8223832  558.3662734  434.2733476  -0.5000  -0.5000   0.5000   -1.5822116   -1.5834124    1.5822933   0
    5  653.4617528  575.8440250  462.1364750  -0.5000  -0.5000   0.5000   -1.5822116   -1.5834124    1.5822933   0
    5  652.0275115  578.2612193  464.0721346  -0.5000  -0.5000   0.5000   -1.5822116   -1.5834124    1.5822933   0
    5  651.7742523  579.8997575  466.1704628  -0.5000  -0.5000   0.5000   -1.5822116   -1.5834124    1.5822933   0
    5  652.0235578  580.6758417  468.6812462  -0.5000  -0.5000   0.5000   -1.5822116   -1.5834124    1.5822933   0
    5  652.4897561  581.6544794  470.7675391  -0.5000  -0.5000   0.5000   -1.5822116   -1.5834124    1.5822933   0
    5  652.9748028  583.0263443  471.9813013  -0.5000  -0.5000   0.5000   -1.5822116   -1.5834124    1.5822933   0
    5  653.4190028  584.2932339  473.0589393  -0.5000  -0.5000   0.5000   -1.5822116   -1.5834124    1.5822933   0
    5  653.6761073  585.7631250  474.4033241  -0.5000  -0.5000   0.5000   -1.5822116   -1.5834124    1.5822933   0
    5  653.4703671  587.8508431  475.5487528  -0.5000  -0.5000   0.5000   -1.5822116   -1.5834124    1.5822933   0
    5  652.8410791  590.1678868  476.2147229  -0.5000  -0.5000   0.5000   -1.5822116   -1.5834124    1.5822933   0
    5  651.9590464  591.9157907  477.1366279  -0.5000  -0.5000   0.5000   -1.5822116   -1.5834124    1.5822933   0
    5  651.9283897  592.9019240  478.7010506  -0.5000  -0.5000   0.5000   -1.5822116   -1.5834124    1.5822933   0
    5  653.2340326  593.3195971  480.4555129  -0.5000  -0.5000   0.5000   -1.5822116   -1.5834124    1.5822933   0
    5  654.8681733  592.9027719  481.7487895  -0.5000  -0.5000   0.5000   -1.5822116   -1.5834124    1.5822933   0
    5  656.6556382  592.0536668  482.2962180  -0.5000  -0.5000   0.5000   -1.5822116   -1.5834124    1.5822933   0
    5  659.2114573  591.5985029  482.4473098  -0.5000  -0.5000   0.5000   -1.5822116   -1.5834124    1.5822933   0
    5  661.1280132  590.3933236  482.4320658  -0.5000  -0.5000   0.5000   -1.5822116   -1.5834124    1.5822933   0
    5  661.3459960  588.1806534  481.6619876  -0.5000  -0.5000   0.5000   -1.5822116   -1.5834124    1.5822933   0
    5  661.3517160  586.1408307  480.1917716  -0.5000  -0.5000   0.5000   -1.5822116   -1.5834124    1.5822933   0
    5  661.8964685  584.0547063  479.1902574  -0.5000  -0.5000   0.5000   -1.5822116   -1.5834124    1.5822933   0
    5  662.3771565  582.4383061  477.9860244  -0.5000  -0.5000   0.5000   -1.5822116   -1.5834124    1.5822933   0
    5  662.4366417  581.3619766  476.1740188  -0.5000  -0.5000   0.5000   -1.5822116   -1.5834124    1.5822933   0
    5  662.6467620  579.5846938  475.1209660  -0.5000  -0.5000   0.5000   -1.5822116   -1.5834124    1.5822933   0
    5  663.1876306  577.5965832  474.4076387  -0.5000  -0.5000   0.5000   -1.5822116   -1.5834124    1.5822933   0
    5  663.2966906  576.6584505  472.5056583  -0.5000  -0.5000   0.5000   -1.5822116   -1.5834124    1.5822933   0
    5  663.0018956  576.1915922  469.9006282  -0.5000  -0.5000   0.5000   -1.5822116   -1.5834124    1.5822933   0
    5  662.4025988  575.3647861  467.8107077  -0.5000  -0.5000   0.5000   -1.5822116   -1.5834124    1.5822933   0
    5  661.1617512  574.9705733  465.9024820  -0.5000  -0.5000   0.5000   -1.5822116   -1.5834124    1.5822933   0
    5  659.7343303  574.9425836  464.1230653  -0.5000  -0.5000   0.5000   -1.5822116   -1.5834124    1.5822933   0
    5  658.6920571  574.6012012  462.5279891  -0.5000  -0.5000   0.5000   -1.5822116   -1.5834124    1.5822933   0
    5  656.9596712  574.7271144  461.5607349  -0.5000  -0.5000   0.5000   -1.5822116   -1.5834124    1.5822933   0
    5  653.4617528  575.8440250  462.1364750  -0.5000  -0.5000   0.5000   -1.5822116   -1.5834124    1.5822933   0
    6  316.9933543  207.4391136  369.5488167  -0.5000   0.5000  -0.5000   -1.5819838    1.5842460   -1.5812070   1
    6  315.9022226  207.1812250  367.8214996  -0.5000   0.5000  -0.5000   -1.5819838    1.5842460   -1.5812070   1
    6  315.4854635  206.2868598  365.9399067  -0.5000   0.5000  -0.5000   -1.5819838    1.5842460   -1.5812070   1
    6  315.2606355  205.5961910  364.1505705  -0.5000   0.5000  -0.5000   -1.5819838    1.5842460   -1.5812070   1
    6  314.2664427  205.1433666  362.4739046  -0.5000   0.5000  -0.5000   -1.5819838    1.5842460   -1.5812070   1
    6  313.0502301  205.4140238  360.5016345  -0.5000   0.5000  -0.5000   -1.5819838    1.5842460   -1.5812070   1
    6  312.3839727  206.2585543  358.4367282  -0.5000   0.5000  -0.5000   -1.5819838    1.5842460   -1.5812070   1
    6  312.6272238  206.4164595  356.9018677  -0.5000   0.5000  -0.5000   -1.5819838    1.5842460   -1.5812070   1
    6  314.3164873  205.7650509  356.3841323  -0.5000   0.5000  -0.5000   -1.5819838    1.5842460   -1.5812070   1
    6  317.1998821  205.4584745  356.7551460  -0.5000   0.5000  -0.5000   -1.5819838    1.5842460   -1.5812070   1
    6  319.4456084  206.1120753  357.5798315  -0.5000   0.5000  -0.5000   -1.5819838    1.5842460   -1.5812070   1
    6  320.2902572  207.7358432  358.7380976  -0.5000   0.5000  -0.5000   -1.5819838    1.5842460   -1.5812070   1
    6  320.4188755  209.5272556  360.3394581  -0.5000   0.5000  -0.5000   -1.5819838    1.5842460   -1.5812070   1
    6  319.8504731  210.3460194  362.3048828  -0.5000   0.5000  -0.5000   -1.5819838    1.5842460   -1.5812070   1
    6  318.6514446  210.2417576  364.2544837  -0.5000   0.5000  -0.5000   -1.5819838    1.5842460   -1.5812070   1
    6  317.6875927  209.5979149  366.1841184  -0.5000   0.5000  -0.5000   -1.5819838    1.5842460   -1.5812070   1
    6  317.4381816  208.6575189  368.0030929  -0.5000   0.5000  -0.5000   -1.5819838    1.5842460   -1.5812070   1
    6  316.9933541  207.4391136  369.5488167  -0.5000   0.5000  -0.5000   -1.5819838    1.5842460   -1.5812070   1
    7    8.4405666  697.6957346   20.1852219  -0.5000  -0.5000  -0.5000   -1.5810613   -1.5799815   -1.5819025   1
    7    8.3306019  696.0843631   20.5385220  -0.5000  -0.5000  -0.5000   -1.5810613   -1.5799815   -1.5819025   1
    7    7.7427447  694.2784814   21.3914226  -0.5000  -0.5000  -0.5000   -1.5810613   -1.5799815   -1.5819025   1
    7    6.7555767  692.7946772   22.6940243  -0.5000  -0.5000  -0.5000   -1.5810613   -1.5799815   -1.5819025   1
    7    5.6864667  691.1866046   24.4621084  -0.5000  -0.5000  -0.5000   -1.5810613   -1.5799815   -1.5819025   1
    7    4.6187821  689.2767009   26.1552269  -0.5000  -0.5000  -0.5000   -1.5810613   -1.5799815   -1.5819025   1
    7    3.8740756  688.1029226   27.3311548  -0.5000  -0.5000  -0.5000   -1.5810613   -1.5799815   -1.5819025   1
    7    4.7597631  687.7259816   28.0914937  -0.5000  -0.5000  -0.5000   -1.5810613   -1.5799815   -1.5819025   1
    7    6.7792821  687.4318576   28.2062270  -0.5000  -0.5000  -0.5000   -1.5810613   -1.5799815   -1.5819025   1
    7    8.2126684  686.2186670   27.9487241  -0.5000  -0.5000  -0.5000   -1.5810613   -1.5799815   -1.5819025   1
    7    9.3600826  684.2332959   28.1027414  -0.5000  -0.5000  -0.5000   -1.5810613   -1.5799815   -1.5819025   1
    7   11.4051598  683.2031621   28.1482092  -0.5000  -0.5000  -0.5000   -1.5810613   -1.5799815   -1.5819025   1
    7   13.5222748  683.2452961   27.1263944  -0.5000  -0.5000  -0.5000   -1.5810613   -1.5799815   -1.5819025   1
    7   14.9596081  683.3764893   25.3738641  -0.5000  -0.5000  -0.5000   -1.5810613   -1.5799815   -1.5819025   1
    7   16.5379252  683.3797671   23.7903473  -0.5000  -0.5000  -0.5000   -1.5810613   -1.5799815   -1.5819025   1
    7   17.7439437  683.7208477   22.2062696  -0.5000  -0.5000  -0.5000   -1.5810613   -1.5799815   -1.5819025   1
    7   18.6527590  684.5705562   20.5339204  -0.5000  -0.5000  -0.5000   -1.5810613   -1.5799815   -1.5819025   1
    7   19.9702545  685.8160027   19.3455718  -0.5000  -0.5000  -0.5000   -1.5810613   -1.5799815   -1.5819025   1
    7   19.8837151  687.3760002   18.7378153  -0.5000  -0.5000  -0.5000   -1.5810613   -1.5799815   -1.5819025   1
    7   17.9623383  688.5215285   18.0291713  -0.5000  -0.5000  -0.5000   -1.5810613   -1.5799815   -1.5819025   1
    7   16.0266629  689.4411450   17.1886612  -0.5000  -0.5000  -0.5000   -1.5810613   -1.5799815   -1.5819025   1
    7   14.4536185  690.7231589   16.7943100  -0.5000  -0.5000  -0.5000   -1.5810613   -1.5799815   -1.5819025   1
    7   12.8929046  692.3914087   17.0901031  -0.5000  -0.5000  -0.5000   -1.5810613   -1.5799815   -1.5819025   1
    7   11.5167343  694.3309884   18.2446957  -0.5000  -0.5000  -0.5000   -1.5810613   -1.5799815   -1.5819025   1
    7   10.2766221  696.0849418   19.3211149  -0.5000  -0.5000  -0.5000   -1.5810613   -1.5799815   -1.5819025   1
    7    8.4405666  697.6957346   20.1852219  -0.5000  -0.5000  -0.5000   -1.5810613   -1.5799815   -1.5819025   1
    8  338.1134999  678.3711389  482.0113056  -1.0000   0.0000   0.0000   -3.1641953    0.0008336    0.0010863   0
    8  336.1166527  678.2876524  481.4899339  -1.0000   0.0000   0.0000   -3.1641953    0.0008336    0.0010863   0
    8  334.3241220  678.0787847  482.5313220  -1.0000   0.0000   0.0000   -3.1641953    0.0008336    0.0010863   0
    8  332.6103947  678.1368216  483.9785804  -1.0000   0.0000   0.0000   -3.1641953    0.0008336    0.0010863   0
    8  330.6619635  678.7105658  484.6328918  -1.0000   0.0000   0.0000   -3.1641953    0.0008336    0.0010863   0
    8  328.7136944  679.3955234  485.3291242  -1.0000   0.0000   0.0000   -3.1641953    0.0008336    0.0010863   0
    8  326.7090540  679.7887837  486.1783567  -1.0000   0.0000   0.0000   -3.1641953    0.0008336    0.0010863   0
    8  324.5353461  680.1820843  486.2810157  -1.0000   0.0000   0.0000   -3.1641953    0.0008336    0.0010863   0
    8  322.5469650  680.7248858  486.7028776  -1.0000   0.0000   0.0000   -3.1641953    0.0008336    0.0010863   0
    8  320.9015587  680.9383812  488.1424524  -1.0000   0.0000   0.0000   -3.1641953    0.0008336    0.0010863   0
    8  319.2700017  680.4027638  489.4182551  -1.0000   0.0000   0.0000   -3.1641953    0.0008336    0.0010863   0
    8  317.3451804  679.8042980  490.5319302  -1.0000   0.0000   0.0000   -3.1641953    0.0008336    0.0010863   0
    8  315.3399211  679.8539458  491.6996354  -1.0000   0.0000   0.0000   -3.1641953    0.0008336    0.0010863   0