ITEM: TIMESTEP
0
ITEM: NUMBER OF ATOMS
8990
ITEM: BOX BOUNDS pp pp pp 
0.0 696.074859
0.0 696.596989
0.0 698.075715
ITEM: ATOMS id x y z tbx tby tbz sbx sby sbz loop
    0  176.6391429  152.6805000   24.1142786  -0.5000   0.5000  -0.5000   -1.5821812    1.5846878   -1.5819294   0
    0  178.6834910  154.0371002   23.8792912  -0.5000   0.5000  -0.5000   -1.5821812    1.5846878   -1.5819294   0
    0  179.9130350  155.2307834   24.9215368  -0.5000   0.5000  -0.5000   -1.5821812    1.5846878   -1.5819294   0
    0  181.3998514  156.1319974   26.1832327  -0.5000   0.5000  -0.5000   -1.5821812    1.5846878   -1.5819294   0
    0  182.8712569  157.7453013   26.3016503  -0.5000   0.5000  -0.5000   -1.5821812    1.5846878   -1.5819294   0
    0  183.2990762  159.9958799   26.5199974  -0.5000   0.5000  -0.5000   -1.5821812    1.5846878   -1.5819294   0
    0  183.1766681  161.3867761   28.0914285  -0.5000   0.5000  -0.5000   -1.5821812    1.5846878   -1.5819294   0
    0  182.9357061  162.3095030   29.8602406  -0.5000   0.5000  -0.5000   -1.5821812    1.5846878   -1.5819294   0
    0  182.5745456  163.0555534   31.2615945  -0.5000   0.5000  -0.5000   -1.5821812    1.5846878   -1.5819294   0
    0  181.7401958  162.7050544   32.5555249  -0.5000   0.5000  -0.5000   -1.5821812    1.5846878   -1.5819294   0
    0  179.8040999  161.8247323   33.5467194  -0.5000   0.5000  -0.5000   -1.5821812    1.5846878   -1.5819294   0
    0  177.4615680  160.8983652   34.2527387  -0.5000   0.5000  -0.5000   -1.5821812    1.5846878   -1.5819294   0
    0  176.0083759  159.4896442   34.8500923  -0.5000   0.5000  -0.5000   -1.5821812    1.5846878   -1.5819294   0
    0  175.9888626  157.7136162   35.0870667  -0.5000   0.5000  -0.5000   -1.5821812    1.5846878   -1.5819294   0
    0  176.7912473  156.1420972   33.8337922  -0.5000   0.5000  -0.5000   -1.5821812    1.5846878   -1.5819294   0
    0  177.3136231  155.0567257   31.3117928  -0.5000   0.5000  -0.5000   -1.5821812    1.5846878   -1.5819294   0
    0  177.9792180  154.4184580   29.1605052  -0.5000   0.5000  -0.5000   -1.5821812    1.5846878   -1.5819294   0
    0  179.1469819  154.4179480   27.4555653  -0.5000   0.5000  -0.5000   -1.5821812    1.5846878   -1.5819294   0
    0  178.9353850  154.2978238   25.8410796  -0.5000   0.5000  -0.5000   -1.5821812    1.5846878   -1.5819294   0
    0  176.2303571  153.1132856   24.7651500  -0.5000   0.5000  -0.5000   -1.5821812    1.5846878   -1.5819294   0
    1  230.7841898  623.5839639   40.3924028  -0.5000   0.5000   0.5000   -1.5825703    1.5812323    1.5827335   0
    1  229.3341072  632.0452501   38.3597964  -0.5000   0.5000   0.5000   -1.5825703    1.5812323    1.5827335   0
    1  229.7283438  635.1960746   37.6138938  -0.5000   0.5000   0.5000   -1.5825703    1.5812323    1.5827335   0
    1  231.2234188  636.7830380   37.5053394  -0.5000   0.5000   0.5000   -1.5825703    1.5812323    1.5827335   0
    1  233.3336083  637.8932459   37.8902133  -0.5000   0.5000   0.5000   -1.5825703    1.5812323    1.5827335   0
    1  234.8466666  637.7159285   39.5305738  -0.5000   0.5000   0.5000   -1.5825703    1.5812323    1.5827335   0
    1  235.1315958  636.8728737   41.1765473  -0.5000   0.5000   0.5000   -1.5825703    1.5812323    1.5827335   0
    1  235.1166066  635.0241568   41.7927427  -0.5000   0.5000   0.5000   -1.5825703    1.5812323    1.5827335   0
    1  235.3040128  632.8009417   42.5365872  -0.5000   0.5000   0.5000   -1.5825703    1.5812323    1.5827335   0
    1  235.0111114  630.9632419   43.6710436  -0.5000   0.5000   0.5000   -1.5825703    1.5812323    1.5827335   0
    1  234.2440459  629.1931436   43.9704604  -0.5000   0.5000   0.5000   -1.5825703    1.5812323    1.5827335   0
    1  233.1354110  626.8185387   42.7083029  -0.5000   0.5000   0.5000   -1.5825703    1.5812323    1.5827335   0
    1  230.7841898  623.5839639   40.3924028  -0.5000   0.5000   0.5000   -1.5825703    1.5812323    1.5827335   0
    2  626.6546318  376.4621473  474.3376679   0.5000   0.5000   0.5000    1.5820820    1.5800627    1.5815871   1
    2  626.2326002  377.8631868  473.7617775   0.5000   0.5000   0.5000    1.5820820    1.5800627    1.5815871   1
    2  625.5541238  379.5171032  472.6023357   0.5000   0.5000   0.5000    1.5820820    1.5800627    1.5815871   1
    2  625.3520693  381.4442184  471.4969544   0.5000   0.5000   0.5000    1.5820820    1.5800627    1.5815871   1
    2  625.8674083  383.1106614  470.4579691   0.5000   0.5000   0.5000    1.5820820    1.5800627    1.5815871   1
    2  626.6095232  383.9781309  468.6976165   0.5000   0.5000   0.5000    1.5820820    1.5800627    1.5815871   1
    2  627.4613082  384.2447712  466.5334240   0.5000   0.5000   0.5000    1.5820820    1.5800627    1.5815871   1
    2  629.1442392  384.1050612  465.1832080   0.5000   0.5000   0.5000    1.5820820    1.5800627    1.5815871   1
    2  630.9025927  383.3335196  464.2367780   0.5000   0.5000   0.5000    1.5820820    1.5800627    1.5815871   1
    2  632.6106079  382.2703713  463.3340244   0.5000   0.5000   0.5000    1.5820820    1.5800627    1.5815871   1
    2  635.1039373  381.6551732  463.0392263   0.5000   0.5000   0.5000    1.5820820    1.5800627    1.5815871   1
    2  637.5085743  380.3531930  462.9509518   0.5000   0.5000   0.5000    1.5820820    1.5800627    1.5815871   1
    2  638.3866200  378.4083209  463.4349730   0.5000   0.5000   0.5000    1.5820820    1.5800627    1.5815871   1
    2  638.4418521  377.4789142  465.3462993   0.5000   0.5000   0.5000    1.5820820    1.5800627    1.5815871   1
    2  638.3654039  376.6636359  467.1382920   0.5000   0.5000   0.5000    1.5820820    1.5800627    1.5815871   1
    2  637.3333309  375.4190557  468.0665505   0.5000   0.5000   0.5000    1.5820820    1.5800627    1.5815871   1
    2  635.3047744  374.6483674  469.3936860   0.5000   0.5000   0.5000    1.5820820    1.5800627    1.5815871   1
    2  633.1042827  374.4037200  471.3930972   0.5000   0.5000   0.5000    1.5820820    1.5800627    1.5815871   1
    2  631.3459652  374.5302451  473.3712629   0.5000   0.5000   0.5000    1.5820820    1.5800627    1.5815871   1
    2  629.6201979  374.8017893  474.3589678   0.5000   0.5000   0.5000    1.5820820    1.5800627    1.5815871   1
    2  628.1347629  375.1531256  474.4724950   0.5000   0.5000   0.5000    1.5820820    1.5800627    1.5815871   1
    2  626.6546318  376.4621472  474.3376681   0.5000   0.5000   0.5000    1.5820820    1.5800627    1.5815871   1
    3  623.2068334  603.7072167  515.3334167   0.0000   1.0000   0.0000   -0.0000992    3.1647505   -0.0003423   0
    3  622.9390341  605.8232199  515.5917553   0.0000   1.0000   0.0000   -0.0000992    3.1647505   -0.0003423   0
    3  623.5391479  607.7322163  514.9994669   0.0000   1.0000   0.0000   -0.0000992    3.1647505   -0.0003423   0
    3  623.8249572  609.2433482  513.7959927   0.0000   1.0000   0.0000   -0.0000992    3.1647505   -0.0003423   0
    3  623.2714721  610.7510755  512.8314262   0.0000   1.0000   0.0000   -0.0000992    3.1647505   -0.0003423   0
    3  622.7177053  612.9277345  512.5108636   0.0000   1.0000   0.0000   -0.0000992    3.1647505   -0.0003423   0
    3  622.4518861  615.4970467  512.2916207   0.0000   1.0000   0.0000   -0.0000992    3.1647505   -0.0003423   0
    3  622.2256562  617.9760885  511.8617015   0.0000   1.0000   0.0000   -0.0000992    3.1647505   -0.0003423   0
    3  622.1281052  620.4784840  512.2031307   0.0000   1.0000   0.0000   -0.0000992    3.1647505   -0.0003423   0
    3  622.4099153  622.8305708  513.5019334   0.0000   1.0000   0.0000   -0.0000992    3.1647505   -0.0003423   0
    3  622.6814072  624.7231362  514.7809389   0.0000   1.0000   0.0000   -0.0000992    3.1647505   -0.0003423   0
    3  622.2990123  626.2847312  515.8138910   0.0000   1.0000   0.0000   -0.0000992    3.1647505   -0.0003423   0
    3  621.4080888  628.0912064  516.3787772   0.0000   1.0000   0.0000   -0.0000992    3.1647505   -0.0003423   0
    3  620.8132884  630.3172893  516.6646905   0.0000   1.0000   0.0000   -0.0000992    3.1647505   -0.0003423   0
    3  621.5842150  632.3208812  517.2027993   0.0000   1.0000   0.0000   -0.0000992    3.1647505   -0.0003423   0
    3  623.2900494  633.8956985  518.0877452   0.0000   1.0000   0.0000   -0.0000992    3.1647505   -0.0003423   0
    3  623.4459514  634.4367867  518.5650390   0.0000   1.0000   0.0000   -0.0000992    3.1647505   -0.0003423   0
    3  621.7040004  634.1781272  518.2118205   0.0000   1.0000   0.0000   -0.0000992    3.1647505   -0.0003423   0
    3  620.1321476  635.0903853  517.8100029   0.0000   1.0000   0.0000   -0.0000992    3.1647505   -0.0003423   0
    3  619.3893850  636.8005694  516.9020677   0.0000   1.0000   0.0000   -0.0000992    3.1647505   -0.0003423   0
    3  619.2538245  638.6640813  515.8392014   0.0000   1.0000   0.0000   -0.0000992    3.1647505   -0.0003423   0
    3  619.9113372  640.9325065  515.4332866   0.0000   1.0000   0.0000   -0.0000992    3.1647505   -0.0003423   0
    3  620.3774592  642.7721535  514.5972529   0.0000   1.0000   0.0000   -0.0000992    3.1647505   -0.0003423   0
    3  619.4017128  644.2870496  513.0616646   0.0000   1.0000   0.0000   -0.0000992    3.1647505   -0.0003423   0
    3  617.6810168  645.8914453  511.9712697   0.0000   1.0000   0.0000   -0.0000992    3.1647505   -0.0003423   0
    3  616.7337326  647.7804887  512.0575777   0.0000   1.0000   0.0000   -0.0000992    3.1647505   -0.0003423   0
    3  616.1394101  649.8402933  513.0271072   0.0000   1.0000   0.0000   -0.0000992    3.1647505   -0.0003423   0
    3  614.6573375  651.3176371  513.5908417   0.0000   1.0000   0.0000   -0.0000992    3.1647505   -0.0003423   0
    3  613.7880486  652.5739187  513.3355516   0.0000   1.0000   0.0000   -0.0000992    3.1647505   -0.0003423   0
    3  613.9698962  654.1779275  513.8083401   0.0000   1.0000   0.0000   -0.0000992    3.1647505   -0.0003423   0
    3  613.8982426  655.9775729  514.9848474   0.0000   1.0000   0.0000   -0.0000992    3.1647505   -0.0003423   0
    3  614.4890452  657.8462804  516.0917205   0.0000   1.0000   0.0000   -0.0000992    3.1647505   -0.0003423   0
    3  615.7611925  659.6585114  517.4066192   0.0000   1.0000   0.0000   -0.0000992    3.1647505   -0.0003423   0
    3  616.4578479  661.5450014  518.2210657   0.0000   1.0000   0.0000   -0.0000992    3.1647505   -0.0003423   0
    3  616.8909883  663.4996696  518.7892003   0.0000   1.0000   0.0000   -0.0000992    3.1647505   -0.0003423   0
    3  617.6996550  665.2977076  519.4544210   0.0000   1.0000   0.0000   -0.0000992    3.1647505   -0.0003423   0
    3  618.8262095  666.7794225  518.8713475   0.0000   1.0000   0.0000   -0.0000992    3.1647505   -0.0003423   0
    3  619.8127644  668.3016067  517.5740368   0.0000   1.0000   0.0000   -0.0000992    3.1647505   -0.0003423   0
    3  620.0403108  670.1748544  516.5669347   0.0000   1.0000   0.0000   -0.0000992    3.1647505   -0.0003423   0
    3  619.4776563  672.0437067  515.8044540   0.0000   1.0000   0.0000   -0.0000992    3.1647505   -0.0003423   0
    3  618.7990903  673.7252997  515.2311649   0.0000   1.0000   0.0000   -0.0000992    3.1647505   -0.0003423   0
    3  617.8270453  675.3314005  514.3630600   0.0000   1.0000   0.0000   -0.0000992    3.1647505   -0.0003423   0
    3  616.4616877  677.3330081  513.3706279   0.0000   1.0000   0.0000   -0.0000992    3.1647505   -0.0003423   0
    3  615.8890306  679.5935973  512.3476004   0.0000   1.0000   0.0000   -0.0000992    3.1647505   -0.0003423   0
    3  615.5328998  681.2569318  511.4641267   0.0000   1.0000   0.0000   -0.0000992    3.1647505   -0.0003423   0
    3  614.2452791  682.6896622  510.6550000   0.0000   1.0000   0.0000   -0.0000992    3.1647505   -0.0003423   0
    3  612.8151654  684.3315191  509.9903310   0.0000   1.0000   0.0000   -0.0000992    3.1647505   -0.0003423   0
    3  612.0625301  686.0976734  510.3766454   0.0000   1.0000   0.0000   -0.0000992    3.1647505   -0.0003423   0
    3  611.5222916  688.1545349  511.4064477   0.0000   1.0000   0.0000   -0.0000992    3.1647505   -0.0003423   0
    3  610.6446332  690.0795984  512.3809309   0.0000   1.0000   0.0000   -0.0000992    3.1647505   -0.0003423   0
    3  610.2747973  691.7355227  513.4346533   0.0000   1.0000   0.0000   -0.0000992    3.1647505   -0.0003423   0
    3  610.2839205  693.3275957  514.3760145   0.0000   1.0000   0.0000   -0.0000992    3.1647505   -0.0003423   0
    3  609.7378100  695.0619393  514.5563031   0.0000   1.0000   0.0000   -0.0000992    3.1647505   -0.0003423   0
    3  609.0069980  697.2001544  514.1884697   0.0000   1.0000   0.0000   -0.0000992    3.1647505   -0.0003423   0
    3  608.3488639  699.2967360  514.3195128   0.0000   1.0000   0.0000   -0.0000992    3.1647505   -0.0003423   0
    3  607.6108802  701.0931981  515.1196311   0.0000   1.0000   0.0000   -0.0000992    3.1647505   -0.0003423   0
    3  607.2192656  703.0025286  515.8711268   0.0000   1.0000   0.0000   -0.0000992    3.1647505   -0.0003423   0
    3  607.6836834  704.8346877  516.1042571   0.0000   1.0000   0.0000   -0.0000992    3.1647505   -0.0003423   0
    3  608.4372500  706.2958372  515.6733166   0.0000   1.0000   0.0000   -0.0000992    3.1647505   -0.0003423   0
    4  383.7931840  249.0980107   50.6641328  -0.5000  -0.5000  -0.5000   -1.5820820   -1.5800627   -1.5815871   1
    4  382.4043004  249.8848898   51.1900048  -0.5000  -0.5000  -0.5000   -1.5820820   -1.5800627   -1.5815871   1
    4  380.6122101  250.5482750   52.4003233  -0.5000  -0.5000  -0.5000   -1.5820820   -1.5800627   -1.5815871   1
    4  379.3507487  250.6214472   54.7359840  -0.5000  -0.5000  -0.5000   -1.5820820   -1.5800627   -1.5815871   1
    4  378.3790507  250.1254549   57.2783007  -0.5000  -0.5000  -0.5000   -1.5820820   -1.5800627   -1.5815871   1
    4  377.5155456  249.4068049   59.2016791  -0.5000  -0.5000  -0.5000   -1.5820820   -1.5800627   -1.5815871   1
    4  377.2735887  248.6599277   60.6261164  -0.5000  -0.5000  -0.5000   -1.5820820   -1.5800627   -1.5815871   1
    4  378.0619984  247.0497667   61.5239859  -0.5000  -0.5000  -0.5000   -1.5820820   -1.5800627   -1.5815871   1
    4  379.6150704  245.3506145   61.8398449  -0.5000  -0.5000  -0.5000   -1.5820820   -1.5800627   -1.5815871   1
    4  381.5067209  244.9628943   61.7468744  -0.5000  -0.5000  -0.5000   -1.5820820   -1.5800627   -1.5815871   1
    4  383.2430273  245.4017678   61.1274696  -0.5000  -0.5000  -0.5000   -1.5820820   -1.5800627   -1.5815871   1
    4  384.3686274  245.3956856   59.8688378  -0.5000  -0.5000  -0.5000   -1.5820820   -1.5800627   -1.5815871   1
    4  384.9479044  244.8420115   57.9035581  -0.5000  -0.5000  -0.5000   -1.5820820   -1.5800627   -1.5815871   1
    4  385.4443623  244.8026899   55.6582503  -0.5000  -0.5000  -0.5000   -1.5820820   -1.5800627   -1.5815871   1
    4  385.5537130  245.9706987   54.0318717  -0.5000  -0.5000  -0.5000   -1.5820820   -1.5800627   -1.5815871   1
    4  384.8376315  247.7250473   52.9848196  -0.5000  -0.5000  -0.5000   -1.5820820   -1.5800627   -1.5815871   1
    4  384.2726474  248.6346608   51.9667231  -0.5000  -0.5000  -0.5000   -1.5820820   -1.5800627   -1.5815871   1
    4  383.7931838  249.0980108   50.6641327  -0.5000  -0.5000  -0.5000   -1.5820820   -1.5800627   -1.5815871   1
    5  473.3834441  191.0858387   63.5716289  -0.5000  -0.5000  -0.5000   -1.5820820   -1.5800627   -1.5815871   1
    5  474.3697653  191.9610768   63.0802826  -0.5000  -0.5000  -0.5000   -1.5820820   -1.5800627   -1.5815871   1
    5  475.5552963  192.9314576   61.5436656  -0.5000  -0.5000  -0.5000   -1.5820820   -1.5800627   -1.5815871   1
    5  476.2421693  193.1791851   59.0310532  -0.5000  -0.5000  -0.5000   -1.5820820   -1.5800627   -1.5815871   1
    5  476.4171254  194.1902844   56.9467272  -0.5000  -0.5000  -0.5000   -1.5820820   -1.5800627   -1.5815871   1
    5  476.2484386  196.7233599   56.2942321  -0.5000  -0.5000  -0.5000   -1.5820820   -1.5800627   -1.5815871   1
    5  475.2510331  199.1036051   56.0031890  -0.5000  -0.5000  -0.5000   -1.5820820   -1.5800627   -1.5815871   1
    5  473.5531300  200.4733403   56.0850436  -0.5000  -0.5000  -0.5000   -1.5820820   -1.5800627   -1.5815871   1
    5  472.0287583  201.3583148   57.0163842  -0.5000  -0.5000  -0.5000   -1.5820820   -1.5800627   -1.5815871   1
    5  470.5726513  202.2311048   58.0040396  -0.5000  -0.5000  -0.5000   -1.5820820   -1.5800627   -1.5815871   1
    5  468.8625391  203.2055587   58.8400303  -0.5000  -0.5000  -0.5000   -1.5820820   -1.5800627   -1.5815871   1
    5  467.0320258  204.0970132   59.9389388  -0.5000  -0.5000  -0.5000   -1.5820820   -1.5800627   -1.5815871   1
    5  465.6814767  204.7838777   61.7225688  -0.5000  -0.5000  -0.5000   -1.5820820   -1.5800627   -1.5815871   1
    5  464.8015109  204.8867710   64.0797496  -0.5000  -0.5000  -0.5000   -1.5820820   -1.5800627   -1.5815871   1
    5  463.8531394  203.9000531   65.8578617  -0.5000  -0.5000  -0.5000   -1.5820820   -1.5800627   -1.5815871   1
    5  463.5766236  202.2450033   67.5206297  -0.5000  -0.5000  -0.5000   -1.5820820   -1.5800627   -1.5815871   1
    5  463.9102028  200.4608034   69.5493174  -0.5000  -0.5000  -0.5000   -1.5820820   -1.5800627   -1.5815871   1
    5  464.4607613  198.7604618   70.7798653  -0.5000  -0.5000  -0.5000   -1.5820820   -1.5800627   -1.5815871   1
    5  466.0000794  197.1765822   70.7407561  -0.5000  -0.5000  -0.5000   -1.5820820   -1.5800627   -1.5815871   1
    5  467.8970007  195.5656261   69.6576962  -0.5000  -0.5000  -0.5000   -1.5820820   -1.5800627   -1.5815871   1
    5  469.3096930  194.0203176   68.8526106  -0.5000  -0.5000  -0.5000   -1.5820820   -1.5800627   -1.5815871   1
    5  470.5313197  192.4079116   68.8152884  -0.5000  -0.5000  -0.5000   -1.5820820   -1.5800627   -1.5815871   1
    5  471.7439944  190.8859407   68.2176365  -0.5000  -0.5000  -0.5000   -1.5820820   -1.5800627   -1.5815871   1
    5  472.7313913  190.0562885   66.9025655  -0.5000  -0.5000  -0.5000   -1.5820820   -1.5800627   -1.5815871   1
    5  473.1010112  190.1356834   65.5326369  -0.5000  -0.5000  -0.5000   -1.5820820   -1.5800627   -1.5815871   1
    5  473.3834440  191.0858386   63.5716289  -0.5000  -0.5000  -0.5000   -1.5820820   -1.5800627   -1.5815871   1
    6  508.5881299  186.8611656   44.4084746  -0.5000  -0.5000  -0.5000   -1.5820820   -1.5800627   -1.5815871   1
    6  508.0436187  185.7533707   45.6540118  -0.5000  -0.5000  -0.5000   -1.5820820   -1.5800627   -1.5815871   1
    6  506.6779745  185.2107252   46.9865483  -0.5000  -0.5000  -0.5000   -1.5820820   -1.5800627   -1.5815871   1
    6  505.1129579  184.4341335   47.9880667  -0.5000  -0.5000  -0.5000   -1.5820820   -1.5800627   -1.5815871   1
    6  504.3263964  183.4203805   49.2388885  -0.5000  -0.5000  -0.5000   -1.5820820   -1.5800627   -1.5815871   1
    6  504.3623464  182.6929730   51.7139696  -0.5000  -0.5000  -0.5000   -1.5820820   -1.5800627   -1.5815871   1
    6  504.3864629  181.5240480   54.4020237  -0.5000  -0.5000  -0.5000   -1.5820820   -1.5800627   -1.5815871   1
    6  504.6981743  179.3780398   55.3406698  -0.5000  -0.5000  -0.5000   -1.5820820   -1.5800627   -1.5815871   1
    6  505.9097121  177.5669408   55.1055724  -0.5000  -0.5000  -0.5000   -1.5820820   -1.5800627   -1.5815871   1
    6  507.6489775  176.6222018   54.4408190  -0.5000  -0.5000  -0.5000   -1.5820820   -1.5800627   -1.5815871   1
    6  509.3920131  175.4774949   53.3303866  -0.5000  -0.5000  -0.5000   -1.5820820   -1.5800627   -1.5815871   1
    6  510.8269260  174.1950439   52.2797867  -0.5000  -0.5000  -0.5000   -1.5820820   -1.5800627   -1.5815871   1
    6  512.3712918  173.8113040   51.3296270  -0.5000  -0.5000  -0.5000   -1.5820820   -1.5800627   -1.5815871   1
    6  514.2894627  174.2841061   50.1807254  -0.5000  -0.5000  -0.5000   -1.5820820   -1.5800627   -1.5815871   1
    6  515.4599546  175.4015861   48.9468916  -0.5000  -0.5000  -0.5000   -1.5820820   -1.5800627   -1.5815871   1
    6  515.4715024  176.9468355   47.7663225  -0.5000  -0.5000  -0.5000   -1.5820820   -1.5800627   -1.5815871   1
    6  515.3584990  178.3687063   46.3800328  -0.5000  -0.5000  -0.5000   -1.5820820   -1.5800627   -1.5815871   1
    6  515.1802844  180.0806549   45.1862684  -0.5000  -0.5000  -0.5000   -1.5820820   -1.5800627   -1.5815871   1
    6  514.0024985  182.0552420   44.9839617  -0.5000  -0.5000  -0.5000   -1.5820820   -1.5800627   -1.5815871   1
    6  512.0127426  183.3575258   45.3002274  -0.5000  -0.5000  -0.5000   -1.5820820   -1.5800627   -1.5815871   1
    6  510.2582884  184.3634360   45.1471997  -0.5000  -0.5000  -0.5000   -1.5820820   -1.5800627   -1.5815871   1
    6  509.3231103  185.6468240   44.6476328  -0.5000  -0.5000  -0.5000   -1.5820820   -1.5800627   -1.5815871   1
    6  508.5881298  186.8611654   44.4084746  -0.5000  -0.5000  -0.5000   -1.5820820   -1.5800627   -1.5815871   1
    7  652.1793833  158.6812333  637.9362167  -0.0000  -0.0000  -1.0000    0.0003891    0.0034556   -3.1646629   0
    7  654.2528812  158.7946541  638.9900363  -0.0000  -0.0000  -1.0000    0.0003891    0.0034556   -3.1646629   0
    7  656.1450546  159.7747376  639.2173759  -0.0000  -0.0000  -1.0000    0.0003891    0.0034556   -3.1646629   0
    7  657.9934643  160.5633876  639.2472317  -0.0000  -0.0000  -1.0000    0.0003891    0.0034556   -3.1646629   0
    7  659.8856125  160.9056128  639.4993093  -0.0000  -0.0000  -1.0000    0.0003891    0.0034556   -3.1646629   0
    7  661.6128279  161.9258653  639.4870252  -0.0000  -0.0000  -1.0000    0.0003891    0.0034556   -3.1646629   0
    7  663.2051449  163.1095704  638.7723914  -0.0000  -0.0000  -1.0000    0.0003891    0.0034556   -3.1646629   0
    7  665.0608957  163.8456443  638.2270175  -0.0000  -0.0000  -1.0000    0.0003891    0.0034556   -3.1646629   0
    7  667.4610889  164.1446338  638.2261353  -0.0000  -0.0000  -1.0000    0.0003891    0.0034556   -3.1646629   0
    7  670.0847138  163.7826336  637.7833063  -0.0000  -0.0000  -1.0000    0.0003891    0.0034556   -3.1646629   0
    7  672.4149227  163.0913628  637.2405444  -0.0000  -0.0000  -1.0000    0.0003891    0.0034556   -3.1646629   0
    7  674.2523257  162.0202905  636.5472256  -0.0000  -0.0000  -1.0000    0.0003891    0.0034556   -3.1646629   0
    7  675.7363054  160.8175998  635.2159607  -0.0000  -0.0000  -1.0000    0.0003891    0.0034556   -3.1646629   0
    7  677.3191000  160.0354166  633.9209667  -0.0000  -0.0000  -1.0000    0.0003891    0.0034556   -3.1646629   0
    8  259.1570713    2.3413680  368.1566428  -0.5000  -0.5000   0.5000   -1.5824711   -1.5835182    1.5830758   0
    8  258.3228041    3.7260354  369.1521145  -0.5000  -0.5000   0.5000   -1.5824711   -1.5835182    1.5830758   0
    8  257.6055408    4.7450485  370.3532893  -0.5000  -0.5000   0.5000   -1.5824711   -1.5835182    1.5830758   0
    8  257.3585835    5.7070508  371.9087830  -0.5000  -0.5000   0.5000   -1.5824711   -1.5835182    1.5830758   0
    8  257.3471766    7.2325476  373.6108020  -0.5000  -0.5000   0.5000   -1.5824711   -1.5835182    1.5830758   0
    8  257.4740696    9.3528761  374.8977830  -0.5000  -0.5000   0.5000   -1.5824711   -1.5835182    1.5830758   0
    8  257.9171611   11.1942866  376.0927786  -0.5000  -0.5000   0.5000   -1.5824711   -1.5835182    1.5830758   0
    8  258.1365241   12.8282869  377.3869730  -0.5000  -0.5000   0.5000   -1.5824711   -1.5835182    1.5830758   0
    8  258.2990284   14.6896651  378.5188518  -0.5000  -0.5000   0.5000   -1.5824711   -1.5835182    1.5830758   0
    8  258.2193713   15.9265919  379.5719045  -0.5000  -0.5000   0.5000   -1.5824711   -1.5835182    1.5830758   0
    8  257.0171764   16.5969053  380.3322085  -0.5000  -0.5000   0.5000   -1.5824711   -1.5835182    1.5830758   0
    8  255.3793915   17.6981233  380.7707297  -0.5000  -0.5000   0.5000   -1.5824711   -1.5835182    1.5830758   0
    8  254.3403524   19.1694334  381.3831137  -0.5000  -0.5000   0.5000   -1.5824711   -1.5835182    1.5830758   0
    8  254.0593985   20.7451999  382.5161657  -0.5000  -0.5000   0.5000   -1.5824711   -1.5835182    1.5830758   0
    8  253.8301650   22.3932735  383.6723551  -0.5000  -0.5000   0.5000   -1.5824711   -1.5835182    1.5830758   0
    8  253.2467553   24.4726938  384.3033287  -0.5000  -0.5000   0.5000   -1.5824711   -1.5835182    1.5830758   0
    8  252.6113295   26.7698915  384.8641685  -0.5000  -0.5000   0.5000   -1.5824711   -1.5835182    1.5830758   0
    8  252.3026416   28.3956049  385.9682843  -0.5000  -0.5000   0.5000   -1.5824711   -1.5835182    1.5830758   0
    8  252.3062806   29.5952649  387.4583034  -0.5000  -0.5000   0.5000   -1.5824711   -1.5835182    1.5830758   0
    8  252.0277865   31.2408407  388.6019421  -0.5000  -0.5000   0.5000   -1.5824711   -1.5835182    1.5830758   0
    8  251.6679860   33.2158736  389.7697701  -0.5000  -0.5000   0.5000   -1.5824711   -1.5835182    1.5830758   0
    8  251.3740748   34.7639677  391.6493938  -0.5000  -0.5000   0.5000   -1.5824711   -1.5835182    1.5830758   0
    8  250.5229454   36.1663731  393.2889727  -0.5000  -0.5000   0.5000   -1.5824711   -1.5835182    1.5830758   0
    8  249.0420297   37.7627727  393.6991806  -0.5000  -0.5000   0.5000   -1.5824711   -1.5835182    1.5830758   0
    8  247.7378357   39.7340395  393.4266954  -0.5000  -0.5000   0.5000   -1.5824711   -1.5835182    1.5830758   0
    8  247.1464464   42.3997617  393.4445115  -0.5000  -0.5000   0.5000   -1.5824711   -1.5835182    1.5830758   0
    8  246.3736818   44.6522295  393.3120360  -0.5000  -0.5000   0.5000   -1.5824711   -1.5835182    1.5830758   0
    8  244.7562818   45.7606837  392.4645901  -0.5000  -0.5000   0.5000   -1.5824711   -1.5835182    1.5830758   0
    8  243.6453628   45.7152298  391.0324641  -0.5000  -0.5000   0.5000   -1.5824711   -1.5835182    1.5830758   0
    8  242.5019913   45.4016593  389.4465270  -0.5000  -0.5000   0.5000   -1.5824711   -1.5835182    1.5830758   0
    8  238.6551259   46.7258976  388.6552850  -0.5000  -0.5000   0.5000   -1.5824711   -1.5835182    1.5830758   0
    9   93.3580763  369.7676058  458.5781053  -0.5000   0.5000   0.5000   -1.5825703    1.5812323    1.5827335   1
    9   93.7038401  369.8321724  460.5498254  -0.5000   0.5000   0.5000   -1.5825703    1.5812323    1.5827335   1
    9   94.3589466  368.7735571  462.6612467  -0.5000   0.5000   0.5000   -1.5825703    1.5812323    1.5827335   1
    9   94.0926329  367.0318683  463.9792953  -0.5000   0.5000   0.5000   -1.5825703    1.5812323    1.5827335   1
    9   92.6019855  365.1274352  464.2960762  -0.5000   0.5000   0.5000   -1.5825703    1.5812323    1.5827335   1
    9   90.9479767  364.1618357  463.6897349  -0.5000   0.5000   0.5000   -1.5825703    1.5812323    1.5827335   1
    9   89.5097239  364.6699298  462.3972247  -0.5000   0.5000   0.5000   -1.5825703    1.5812323    1.5827335   1
    9   88.3779053  365.7464696  461.2775303  -0.5000   0.5000   0.5000   -1.5825703    1.5812323    1.5827335   1
    9   88.6339939  366.9547317  460.4719808  -0.5000   0.5000   0.5000   -1.5825703    1.5812323    1.5827335   1
    9   89.9678881  368.5553275  459.3349333  -0.5000   0.5000   0.5000   -1.5825703    1.5812323    1.5827335   1
    9   91.1708164  369.8683757  458.3929831  -0.5000   0.5000   0.5000   -1.5825703    1.5812323    1.5827335   1
    9   92.1041943  370.0401479  458.0454648  -0.5000   0.5000   0.5000   -1.5825703    1.5812323    1.5827335   1
    9   93.3580763  369.7676059  458.5781052  -0.5000   0.5000   0.5000   -1.5825703    1.5812323    1.5827335   1
   10   87.3171388   43.6514256  617.7542754  -0.5000  -0.5000  -0.5000   -1.5820820   -1.5800627   -1.5815871   1
   10   87.2353456   45.1427740  617.3448288  -0.5000  -0.5000  -0.5000   -1.5820820   -1.5800627   -1.5815871   1
   10   87.5601775   47.5586784  616.0280235  -0.5000  -0.5000  -0.5000   -1.5820820   -1.5800627   -1.5815871   1
   10   88.7504452   49.2493873  614.0656778  -0.5000  -0.5000  -0.5000   -1.5820820   -1.5800627   -1.5815871   1
   10   89.5538856   50.5431454  612.3622081  -0.5000  -0.5000  -0.5000   -1.5820820   -1.5800627   -1.5815871   1
   10   89.4425564   52.8610608  611.5308622  -0.5000  -0.5000  -0.5000   -1.5820820   -1.5800627   -1.5815871   1
   10   89.6307041   55.2162821  610.7449382  -0.5000  -0.5000  -0.5000   -1.5820820   -1.5800627   -1.5815871   1
   10   90.4345303   56.9823322  609.4291304  -0.5000  -0.5000  -0.5000   -1.5820820   -1.5800627   -1.5815871   1
   10   91.1537877   58.6601731  608.6145627  -0.5000  -0.5000  -0.5000   -1.5820820   -1.5800627   -1.5815871   1
   10   92.0287700   60.1298846  607.8864527  -0.5000  -0.5000  -0.5000   -1.5820820   -1.5800627   -1.5815871   1
   10   92.7966631   61.5973950  606.4457721  -0.5000  -0.5000  -0.5000   -1.5820820   -1.5800627   -1.5815871   1
   10   92.5480305   63.5359701  604.9668937  -0.5000  -0.5000  -0.5000   -1.5820820   -1.5800627   -1.5815871   1
   10   91.8029688   65.1838596  604.0352831  -0.5000  -0.5000  -0.5000   -1.5820820   -1.5800627   -1.5815871   1
   10   91.2879355   66.3106703  604.4534603  -0.5000  -0.5000  -0.5000   -1.5820820   -1.5800627   -1.5815871   1
   10   90.6683149   67.6162482  605.8152374  -0.5000  -0.5000  -0.5000   -1.5820820   -1.5800627   -1.5815871   1
   10   89.3227436   68.8678071  607.1091286  -0.5000  -0.5000  -0.5000   -1.5820820   -1.5800627   -1.5815871   1
   10   87.6951293   69.3271586  608.8505180  -0.5000  -0.5000  -0.5000   -1.5820820   -1.5800627   -1.5815871   1
   10   86.3423477   69.3967282  610.6642041  -0.5000  -0.5000  -0.5000   -1.5820820   -1.5800627   -1.5815871   1
   10   84.8522200   70.1027932  611.6127243  -0.5000  -0.5000  -0.5000   -1.5820820   -1.5800627   -1.5815871   1
   10   83.2176785   71.1647430  612.3207934  -0.5000  -0.5000  -0.5000   -1.5820820   -1.5800627   -1.5815871   1