ITEM: TIMESTEP
0
ITEM: NUMBER OF ATOMS
8168
ITEM: BOX BOUNDS pp pp pp 
0.0 695.628280
0.0 697.025414
0.0 698.123628
ITEM: ATOMS id x y z tbx tby tbz sbx sby sbz loop
    0  363.8017261  547.8915615  165.3241108   0.5000   0.5000   0.5000    1.5801265    1.5806606    1.5831155   1
    0  364.2598681  547.2648955  165.9066664   0.5000   0.5000   0.5000    1.5801265    1.5806606    1.5831155   1
    0  365.3050235  546.2265777  167.0043056   0.5000   0.5000   0.5000    1.5801265    1.5806606    1.5831155   1
    0  366.5284341  545.2157710  168.2973306   0.5000   0.5000   0.5000    1.5801265    1.5806606    1.5831155   1
    0  367.4942751  543.6500944  169.0581613   0.5000   0.5000   0.5000    1.5801265    1.5806606    1.5831155   1
    0  367.5813248  541.4168780  169.7383711   0.5000   0.5000   0.5000    1.5801265    1.5806606    1.5831155   1
    0  366.8211102  539.5837272  170.9720670   0.5000   0.5000   0.5000    1.5801265    1.5806606    1.5831155   1
    0  365.5881587  539.0695287  172.2428816   0.5000   0.5000   0.5000    1.5801265    1.5806606    1.5831155   1
    0  364.0978920  539.7210682  173.1175176   0.5000   0.5000   0.5000    1.5801265    1.5806606    1.5831155   1
    0  362.3030226  540.5568195  174.2350229   0.5000   0.5000   0.5000    1.5801265    1.5806606    1.5831155   1
    0  360.4460199  541.3020385  175.8531518   0.5000   0.5000   0.5000    1.5801265    1.5806606    1.5831155   1
    0  358.8846946  541.8199022  176.4357392   0.5000   0.5000   0.5000    1.5801265    1.5806606    1.5831155   1
    0  357.9520733  542.8567695  175.5252103   0.5000   0.5000   0.5000    1.5801265    1.5806606    1.5831155   1
    0  357.6675464  545.5803651  174.3758942   0.5000   0.5000   0.5000    1.5801265    1.5806606    1.5831155   1
    0  357.6581974  548.5836148  173.6482479   0.5000   0.5000   0.5000    1.5801265    1.5806606    1.5831155   1
    0  358.0789472  549.9726144  172.8567327   0.5000   0.5000   0.5000    1.5801265    1.5806606    1.5831155   1
    0  359.1347274  550.5235163  171.0997202   0.5000   0.5000   0.5000    1.5801265    1.5806606    1.5831155   1
    0  360.5342257  550.8089271  169.3556169   0.5000   0.5000   0.5000    1.5801265    1.5806606    1.5831155   1
    0  362.0129334  550.1818099  168.3179567   0.5000   0.5000   0.5000    1.5801265    1.5806606    1.5831155   1
    0  363.0258363  549.2208922  167.1643087   0.5000   0.5000   0.5000    1.5801265    1.5806606    1.5831155   1
    0  363.8017262  547.8915614  165.3241108   0.5000   0.5000   0.5000    1.5801265    1.5806606    1.5831155   1
    1  620.1055179   14.0453681  391.5702141  -0.5000   0.5000   0.5000   -1.5844450    1.5799695    1.5846701   1
    1  619.8568059   13.7677979  389.7887004  -0.5000   0.5000   0.5000   -1.5844450    1.5799695    1.5846701   1
    1  618.8255890   13.4795464  387.5017824  -0.5000   0.5000   0.5000   -1.5844450    1.5799695    1.5846701   1
    1  618.1152574   13.9972791  385.4325352  -0.5000   0.5000   0.5000   -1.5844450    1.5799695    1.5846701   1
    1  617.8344895   16.2003346  384.1198237  -0.5000   0.5000   0.5000   -1.5844450    1.5799695    1.5846701   1
    1  618.2508488   18.7307393  383.3514926  -0.5000   0.5000   0.5000   -1.5844450    1.5799695    1.5846701   1
    1  619.3001713   20.2038916  382.8937232  -0.5000   0.5000   0.5000   -1.5844450    1.5799695    1.5846701   1
    1  620.4190725   21.2824807  383.3551022  -0.5000   0.5000   0.5000   -1.5844450    1.5799695    1.5846701   1
    1  621.7512001   22.4878087  383.9886334  -0.5000   0.5000   0.5000   -1.5844450    1.5799695    1.5846701   1
    1  623.5929631   23.3351028  384.4464264  -0.5000   0.5000   0.5000   -1.5844450    1.5799695    1.5846701   1
    1  625.4998455   23.7682099  385.5677426  -0.5000   0.5000   0.5000   -1.5844450    1.5799695    1.5846701   1
    1  626.8666132   23.5866148  387.1240384  -0.5000   0.5000   0.5000   -1.5844450    1.5799695    1.5846701   1
    1  627.2692248   22.2213191  388.7638284  -0.5000   0.5000   0.5000   -1.5844450    1.5799695    1.5846701   1
    1  627.4689504   20.3787205  390.2683957  -0.5000   0.5000   0.5000   -1.5844450    1.5799695    1.5846701   1
    1  628.1321548   18.7598969  391.3192434  -0.5000   0.5000   0.5000   -1.5844450    1.5799695    1.5846701   1
    1  628.0823835   17.0799609  391.9674192  -0.5000   0.5000   0.5000   -1.5844450    1.5799695    1.5846701   1
    1  626.6128912   15.5416920  392.2481666  -0.5000   0.5000   0.5000   -1.5844450    1.5799695    1.5846701   1
    1  624.6289366   14.6681236  391.8322774  -0.5000   0.5000   0.5000   -1.5844450    1.5799695    1.5846701   1
    1  622.8439510   14.3706367  391.1881206  -0.5000   0.5000   0.5000   -1.5844450    1.5799695    1.5846701   1
    1  621.4486697   14.2831499  391.2900994  -0.5000   0.5000   0.5000   -1.5844450    1.5799695    1.5846701   1
    1  620.1055180   14.0453681  391.5702140  -0.5000   0.5000   0.5000   -1.5844450    1.5799695    1.5846701   1
    2  166.9468590  487.0721292  344.9640908   0.5000   0.5000  -0.5000    1.5824673    1.5847046   -1.5814556   1
    2  165.7669197  486.4729349  344.7692454   0.5000   0.5000  -0.5000    1.5824673    1.5847046   -1.5814556   1
    2  164.9936910  485.5744327  343.7504744   0.5000   0.5000  -0.5000    1.5824673    1.5847046   -1.5814556   1
    2  165.3041322  484.5777730  341.8716694   0.5000   0.5000  -0.5000    1.5824673    1.5847046   -1.5814556   1
    2  165.9851674  483.4009054  340.1745221   0.5000   0.5000  -0.5000    1.5824673    1.5847046   -1.5814556   1
    2  167.0404936  481.6737235  339.1368283   0.5000   0.5000  -0.5000    1.5824673    1.5847046   -1.5814556   1
    2  168.9654937  480.5380353  339.0463505   0.5000   0.5000  -0.5000    1.5824673    1.5847046   -1.5814556   1
    2  171.0584221  480.4623723  340.0758496   0.5000   0.5000  -0.5000    1.5824673    1.5847046   -1.5814556   1
    2  172.3154193  480.9169675  341.7048324   0.5000   0.5000  -0.5000    1.5824673    1.5847046   -1.5814556   1
    2  173.1602110  481.8417509  343.3849081   0.5000   0.5000  -0.5000    1.5824673    1.5847046   -1.5814556   1
    2  173.7550750  483.0778138  344.9699964   0.5000   0.5000  -0.5000    1.5824673    1.5847046   -1.5814556   1
    2  172.8914492  484.1690371  346.0764010   0.5000   0.5000  -0.5000    1.5824673    1.5847046   -1.5814556   1
    2  170.3830959  484.8113066  346.3114315   0.5000   0.5000  -0.5000    1.5824673    1.5847046   -1.5814556   1
    2  167.8693636  485.5948568  346.3111669   0.5000   0.5000  -0.5000    1.5824673    1.5847046   -1.5814556   1
    2  166.9963341  486.4679933  346.0704056   0.5000   0.5000  -0.5000    1.5824673    1.5847046   -1.5814556   1
    2  166.9468589  487.0721290  344.9640910   0.5000   0.5000  -0.5000    1.5824673    1.5847046   -1.5814556   1
    3  488.0156124  345.1294334  640.5640359   0.5000  -0.5000   0.5000    1.5821042   -1.5840134    1.5799010   1
    3  487.5945457  346.1812455  641.4353253   0.5000  -0.5000   0.5000    1.5821042   -1.5840134    1.5799010   1
    3  486.3374561  347.2397343  642.7457104   0.5000  -0.5000   0.5000    1.5821042   -1.5840134    1.5799010   1
    3  485.4257723  347.8719191  644.3262053   0.5000  -0.5000   0.5000    1.5821042   -1.5840134    1.5799010   1
    3  485.1194382  348.8252048  646.2249890   0.5000  -0.5000   0.5000    1.5821042   -1.5840134    1.5799010   1
    3  485.0925680  350.6233696  648.0352756   0.5000  -0.5000   0.5000    1.5821042   -1.5840134    1.5799010   1
    3  484.8149302  351.8062689  649.9692501   0.5000  -0.5000   0.5000    1.5821042   -1.5840134    1.5799010   1
    3  484.1431296  351.8876425  652.0814019   0.5000  -0.5000   0.5000    1.5821042   -1.5840134    1.5799010   1
    3  483.5614121  352.0652028  654.1379078   0.5000  -0.5000   0.5000    1.5821042   -1.5840134    1.5799010   1
    3  483.3675922  353.0661241  655.8255340   0.5000  -0.5000   0.5000    1.5821042   -1.5840134    1.5799010   1
    3  483.2431513  353.9291898  657.1748102   0.5000  -0.5000   0.5000    1.5821042   -1.5840134    1.5799010   1
    3  482.4232677  354.0122423  658.6341136   0.5000  -0.5000   0.5000    1.5821042   -1.5840134    1.5799010   1
    3  480.6596400  353.8858802  659.7607936   0.5000  -0.5000   0.5000    1.5821042   -1.5840134    1.5799010   1
    3  478.5522478  353.6962170  660.8019846   0.5000  -0.5000   0.5000    1.5821042   -1.5840134    1.5799010   1
    3  476.8091301  353.7207914  662.4664739   0.5000  -0.5000   0.5000    1.5821042   -1.5840134    1.5799010   1
    3  476.1697298  354.3872207  663.9354299   0.5000  -0.5000   0.5000    1.5821042   -1.5840134    1.5799010   1
    3  476.6798008  355.7328970  664.8217408   0.5000  -0.5000   0.5000    1.5821042   -1.5840134    1.5799010   1
    3  477.3549062  357.4461021  665.7148458   0.5000  -0.5000   0.5000    1.5821042   -1.5840134    1.5799010   1
    3  477.7852684  358.9051219  667.0053592   0.5000  -0.5000   0.5000    1.5821042   -1.5840134    1.5799010   1
    3  478.1987625  360.0103355  668.3488406   0.5000  -0.5000   0.5000    1.5821042   -1.5840134    1.5799010   1
    3  478.6077906  361.0890889  669.4312231   0.5000  -0.5000   0.5000    1.5821042   -1.5840134    1.5799010   1
    3  479.2422724  362.8648203  670.2475114   0.5000  -0.5000   0.5000    1.5821042   -1.5840134    1.5799010   1
    3  480.9427396  364.8219442  670.3938890   0.5000  -0.5000   0.5000    1.5821042   -1.5840134    1.5799010   1
    3  482.8573524  366.0467626  669.6938596   0.5000  -0.5000   0.5000    1.5821042   -1.5840134    1.5799010   1
    3  483.8588541  367.2327750  668.4315240   0.5000  -0.5000   0.5000    1.5821042   -1.5840134    1.5799010   1
    3  484.6605669  368.7495326  666.8040103   0.5000  -0.5000   0.5000    1.5821042   -1.5840134    1.5799010   1
    3  485.1162269  369.8424959  665.3511143   0.5000  -0.5000   0.5000    1.5821042   -1.5840134    1.5799010   1
    3  485.7353069  369.3072522  664.6045947   0.5000  -0.5000   0.5000    1.5821042   -1.5840134    1.5799010   1
    3  487.1440912  367.7628358  663.6586721   0.5000  -0.5000   0.5000    1.5821042   -1.5840134    1.5799010   1
    3  488.0512811  366.8894432  661.5632448   0.5000  -0.5000   0.5000    1.5821042   -1.5840134    1.5799010   1
    3  488.1869420  366.1403279  658.8220195   0.5000  -0.5000   0.5000    1.5821042   -1.5840134    1.5799010   1
    3  488.7433558  364.6517610  657.3059263   0.5000  -0.5000   0.5000    1.5821042   -1.5840134    1.5799010   1
    3  490.1372162  363.5666667  656.7054834   0.5000  -0.5000   0.5000    1.5821042   -1.5840134    1.5799010   1
    3  491.3521219  363.3380494  654.5870618   0.5000  -0.5000   0.5000    1.5821042   -1.5840134    1.5799010   1
    3  491.8647552  362.5958200  652.0457259   0.5000  -0.5000   0.5000    1.5821042   -1.5840134    1.5799010   1
    3  492.6832226  361.6790785  650.5486653   0.5000  -0.5000   0.5000    1.5821042   -1.5840134    1.5799010   1
    3  494.6131473  362.0992355  649.2994326   0.5000  -0.5000   0.5000    1.5821042   -1.5840134    1.5799010   1
    3  496.8142690  362.7497193  647.9973040   0.5000  -0.5000   0.5000    1.5821042   -1.5840134    1.5799010   1
    3  497.4557675  362.4159714  646.3070740   0.5000  -0.5000   0.5000    1.5821042   -1.5840134    1.5799010   1
    3  496.6207496  361.2139184  644.5812715   0.5000  -0.5000   0.5000    1.5821042   -1.5840134    1.5799010   1
    3  495.8669594  359.1920021  643.4392881   0.5000  -0.5000   0.5000    1.5821042   -1.5840134    1.5799010   1
    3  495.2636567  356.8852977  642.5517714   0.5000  -0.5000   0.5000    1.5821042   -1.5840134    1.5799010   1
    3  493.8173048  354.7150451  642.0757745   0.5000  -0.5000   0.5000    1.5821042   -1.5840134    1.5799010   1
    3  491.7022905  353.0396856  641.8193456   0.5000  -0.5000   0.5000    1.5821042   -1.5840134    1.5799010   1
    3  490.2167322  351.6669528  640.9468035   0.5000  -0.5000   0.5000    1.5821042   -1.5840134    1.5799010   1
    3  489.1621961  350.0830352  640.1809160   0.5000  -0.5000   0.5000    1.5821042   -1.5840134    1.5799010   1
    3  488.3619967  348.0783587  640.1504705   0.5000  -0.5000   0.5000    1.5821042   -1.5840134    1.5799010   1
    3  488.0156124  345.1294332  640.5640360   0.5000  -0.5000   0.5000    1.5821042   -1.5840134    1.5799010   1
    4  597.8497273  601.8931477  410.6589431   0.5000   0.5000  -0.5000    1.5824673    1.5847046   -1.5814556   0
    4  595.9730886  602.9070114  411.8296755   0.5000   0.5000  -0.5000    1.5824673    1.5847046   -1.5814556   0
    4  594.6558837  603.6063751  413.1640707   0.5000   0.5000  -0.5000    1.5824673    1.5847046   -1.5814556   0
    4  594.0092130  604.6662297  415.1675934   0.5000   0.5000  -0.5000    1.5824673    1.5847046   -1.5814556   0
    4  593.5658553  605.9350178  417.4168028   0.5000   0.5000  -0.5000    1.5824673    1.5847046   -1.5814556   0
    4  592.6613142  607.5029065  418.3073101   0.5000   0.5000  -0.5000    1.5824673    1.5847046   -1.5814556   0
    4  591.0342553  608.9264724  417.9376261   0.5000   0.5000  -0.5000    1.5824673    1.5847046   -1.5814556   0
    4  589.4112046  610.1433078  417.7474117   0.5000   0.5000  -0.5000    1.5824673    1.5847046   -1.5814556   0
    4  587.9869515  611.4713574  418.2475054   0.5000   0.5000  -0.5000    1.5824673    1.5847046   -1.5814556   0
    4  585.9064140  612.1741693  418.4942751   0.5000   0.5000  -0.5000    1.5824673    1.5847046   -1.5814556   0
    4  583.7139794  612.7590464  418.0840790   0.5000   0.5000  -0.5000    1.5824673    1.5847046   -1.5814556   0
    4  583.0346145  614.1551335  417.9246482   0.5000   0.5000  -0.5000    1.5824673    1.5847046   -1.5814556   0
    4  583.6979344  615.1510093  418.9198643   0.5000   0.5000  -0.5000    1.5824673    1.5847046   -1.5814556   0
    4  584.1965917  614.5516802  420.6414694   0.5000   0.5000  -0.5000    1.5824673    1.5847046   -1.5814556   0
    4  584.4854831  613.0406183  421.7481248   0.5000   0.5000  -0.5000    1.5824673    1.5847046   -1.5814556   0
    4  585.3620630  612.0744483  422.6159086   0.5000   0.5000  -0.5000    1.5824673    1.5847046   -1.5814556   0
    4  586.4828836  612.0635020  424.7437839   0.5000   0.5000  -0.5000    1.5824673    1.5847046   -1.5814556   0
    4  587.0000589  612.4099649  427.8072673   0.5000   0.5000  -0.5000    1.5824673    1.5847046   -1.5814556   0
    4  587.4101831  612.4945384  430.4622381   0.5000   0.5000  -0.5000    1.5824673    1.5847046   -1.5814556   0
    4  588.0054933  612.2851446  432.8706665   0.5000   0.5000  -0.5000    1.5824673    1.5847046   -1.5814556   0
    4  587.6852651  611.6191400  435.3324444   0.5000   0.5000  -0.5000    1.5824673    1.5847046   -1.5814556   0
    4  586.8529015  609.9125404  436.7375979   0.5000   0.5000  -0.5000    1.5824673    1.5847046   -1.5814556   0
    4  586.6147858  609.9332938  436.7178866   0.5000   0.5000  -0.5000    1.5824673    1.5847046   -1.5814556   0
    4  586.9145436  612.7473494  437.0335476   0.5000   0.5000  -0.5000    1.5824673    1.5847046   -1.5814556   0
    4  587.7856349  614.6673518  438.7523204   0.5000   0.5000  -0.5000    1.5824673    1.5847046   -1.5814556   0
    4  589.1516656  615.1514439  440.8815906   0.5000   0.5000  -0.5000    1.5824673    1.5847046   -1.5814556   0
    4  589.7393901  615.4221331  443.3286859   0.5000   0.5000  -0.5000    1.5824673    1.5847046   -1.5814556   0
    4  589.7173275  615.9411336  445.5718227   0.5000   0.5000  -0.5000    1.5824673    1.5847046   -1.5814556   0
    4  590.6276041  616.3041263  445.9839610   0.5000   0.5000  -0.5000    1.5824673    1.5847046   -1.5814556   0
    4  591.7678511  615.3337454  445.7355106   0.5000   0.5000  -0.5000    1.5824673    1.5847046   -1.5814556   0
    4  592.4156455  613.5325856  446.2188337   0.5000   0.5000  -0.5000    1.5824673    1.5847046   -1.5814556   0
    4  593.1055411  611.3374318  446.6238961   0.5000   0.5000  -0.5000    1.5824673    1.5847046   -1.5814556   0
    4  594.1877560  609.1208328  446.6398726   0.5000   0.5000  -0.5000    1.5824673    1.5847046   -1.5814556   0
    4  595.1269901  607.3812070  446.3365786   0.5000   0.5000  -0.5000    1.5824673    1.5847046   -1.5814556   0
    4  595.5863227  605.9697498  445.7790162   0.5000   0.5000  -0.5000    1.5824673    1.5847046   -1.5814556   0
    4  597.1704604  605.1992809  445.7736337   0.5000   0.5000  -0.5000    1.5824673    1.5847046   -1.5814556   0
    4  599.8460595  604.8309091  446.7246966   0.5000   0.5000  -0.5000    1.5824673    1.5847046   -1.5814556   0
    4  602.0872127  604.0333740  447.9968093   0.5000   0.5000  -0.5000    1.5824673    1.5847046   -1.5814556   0
    4  603.8990861  603.6383931  448.4918804   0.5000   0.5000  -0.5000    1.5824673    1.5847046   -1.5814556   0
    4  604.9723189  603.9116635  447.9311942   0.5000   0.5000  -0.5000    1.5824673    1.5847046   -1.5814556   0
    4  604.9243937  603.0538138  447.0898578   0.5000   0.5000  -0.5000    1.5824673    1.5847046   -1.5814556   0
    4  604.6610714  601.0150819  446.6627984   0.5000   0.5000  -0.5000    1.5824673    1.5847046   -1.5814556   0
    4  604.9271028  599.0076619  446.3795994   0.5000   0.5000  -0.5000    1.5824673    1.5847046   -1.5814556   0
    4  605.9087525  598.0445576  445.4959480   0.5000   0.5000  -0.5000    1.5824673    1.5847046   -1.5814556   0
    4  607.4960069  597.9439061  444.3922452   0.5000   0.5000  -0.5000    1.5824673    1.5847046   -1.5814556   0
    4  609.4134224  597.0574272  443.8270804   0.5000   0.5000  -0.5000    1.5824673    1.5847046   -1.5814556   0
    4  611.4100186  595.5999425  444.0907129   0.5000   0.5000  -0.5000    1.5824673    1.5847046   -1.5814556   0
    4  613.2726234  594.8863563  445.3129551   0.5000   0.5000  -0.5000    1.5824673    1.5847046   -1.5814556   0
    4  615.3694691  594.8218163  447.0401944   0.5000   0.5000  -0.5000    1.5824673    1.5847046   -1.5814556   0
    4  617.4419599  594.3162334  448.5310087   0.5000   0.5000  -0.5000    1.5824673    1.5847046   -1.5814556   0
    4  619.3195808  593.4190264  449.5179818   0.5000   0.5000  -0.5000    1.5824673    1.5847046   -1.5814556   0
    4  621.3834808  593.0412460  450.0890586   0.5000   0.5000  -0.5000    1.5824673    1.5847046   -1.5814556   0
    4  623.1496483  592.8794689  450.6564963   0.5000   0.5000  -0.5000    1.5824673    1.5847046   -1.5814556   0
    4  624.2943309  592.4211970  452.0267392   0.5000   0.5000  -0.5000    1.5824673    1.5847046   -1.5814556   0
    4  625.1221940  592.4034058  453.6582092   0.5000   0.5000  -0.5000    1.5824673    1.5847046   -1.5814556   0
    4  626.1729382  593.4448241  453.7763378   0.5000   0.5000  -0.5000    1.5824673    1.5847046   -1.5814556   0
    4  627.4456215  594.1868296  452.5503765   0.5000   0.5000  -0.5000    1.5824673    1.5847046   -1.5814556   0
    4  628.7187844  593.3103565  451.3755512   0.5000   0.5000  -0.5000    1.5824673    1.5847046   -1.5814556   0
    4  630.0882581  591.3017130  450.5845424   0.5000   0.5000  -0.5000    1.5824673    1.5847046   -1.5814556   0
    4  631.0990949  589.3519868  449.6240675   0.5000   0.5000  -0.5000    1.5824673    1.5847046   -1.5814556   0
    4  631.7697820  588.1938286  448.5140730   0.5000   0.5000  -0.5000    1.5824673    1.5847046   -1.5814556   0
    4  632.8737820  587.5944034  447.7126493   0.5000   0.5000  -0.5000    1.5824673    1.5847046   -1.5814556   0
    4  634.1916896  586.9319570  446.8551461   0.5000   0.5000  -0.5000    1.5824673    1.5847046   -1.5814556   0
    4  636.8311904  586.8205626  447.1083836   0.5000   0.5000  -0.5000    1.5824673    1.5847046   -1.5814556   0
    4  642.5091137  588.3264730  449.8539557   0.5000   0.5000  -0.5000    1.5824673    1.5847046   -1.5814556   0
    5  578.1952271  558.2624247   87.6914946   0.5000  -0.5000  -0.5000    1.5844450   -1.5799695   -1.5846701   1
    5  577.2079612  559.1925193   87.7909820   0.5000  -0.5000  -0.5000    1.5844450   -1.5799695   -1.5846701   1
    5  578.0757157  560.1148096   87.6269804   0.5000  -0.5000  -0.5000    1.5844450   -1.5799695   -1.5846701   1
    5  579.7253888  560.9667315   88.4649530   0.5000  -0.5000  -0.5000    1.5844450   -1.5799695   -1.5846701   1
    5  580.9258156  562.0438082   89.2339098   0.5000  -0.5000  -0.5000    1.5844450   -1.5799695   -1.5846701   1
    5  581.3121879  563.9042225   88.2647265   0.5000  -0.5000  -0.5000    1.5844450   -1.5799695   -1.5846701   1
    5  581.4347493  566.2854925   86.8078188   0.5000  -0.5000  -0.5000    1.5844450   -1.5799695   -1.5846701   1
    5  581.4303757  567.9348243   85.8880159   0.5000  -0.5000  -0.5000    1.5844450   -1.5799695   -1.5846701   1
    5  580.4906329  568.7555442   84.9768585   0.5000  -0.5000  -0.5000    1.5844450   -1.5799695   -1.5846701   1
    5  579.3090095  569.7262079   83.8182847   0.5000  -0.5000  -0.5000    1.5844450   -1.5799695   -1.5846701   1
    5  578.7122303  571.3274503   82.7901300   0.5000  -0.5000  -0.5000    1.5844450   -1.5799695   -1.5846701   1
    5  578.2219788  571.8041824   82.5102373   0.5000  -0.5000  -0.5000    1.5844450   -1.5799695   -1.5846701   1
    5  577.4033138  569.9025518   81.9930341   0.5000  -0.5000  -0.5000    1.5844450   -1.5799695   -1.5846701   1
    5  575.8560812  567.8913847   80.8990323   0.5000  -0.5000  -0.5000    1.5844450   -1.5799695   -1.5846701   1
    5  573.8120097  566.6389796   80.3975832   0.5000  -0.5000  -0.5000    1.5844450   -1.5799695   -1.5846701   1
    5  571.4132377  566.1173004   80.3395953   0.5000  -0.5000  -0.5000    1.5844450   -1.5799695   -1.5846701   1
    5  570.0910654  566.0872208   80.4126837   0.5000  -0.5000  -0.5000    1.5844450   -1.5799695   -1.5846701   1
    5  571.1773963  565.0856292   81.2180962   0.5000  -0.5000  -0.5000    1.5844450   -1.5799695   -1.5846701   1
    5  572.8514073  563.7228779   82.6960847   0.5000  -0.5000  -0.5000    1.5844450   -1.5799695   -1.5846701   1
    5  574.0140823  562.9792858   84.8343884   0.5000  -0.5000  -0.5000    1.5844450   -1.5799695   -1.5846701   1
    5  574.6855754  562.3266821   87.0951205   0.5000  -0.5000  -0.5000    1.5844450   -1.5799695   -1.5846701   1
    5  575.6214991  561.1908081   87.5651099   0.5000  -0.5000  -0.5000    1.5844450   -1.5799695   -1.5846701   1
    5  577.1232152  559.7804043   87.1524606   0.5000  -0.5000  -0.5000    1.5844450   -1.5799695   -1.5846701   1
    5  578.1952270  558.2624247   87.6914947   0.5000  -0.5000  -0.5000    1.5844450   -1.5799695   -1.5846701   1
    6  616.2005825  151.4892515   -2.9143109  -0.5000  -0.5000   0.5000   -1.5824673   -1.5847046    1.5814556   1
    6  615.3758074  150.8296695   -2.2440606  -0.5000  -0.5000   0.5000   -1.5824673   -1.5847046    1.5814556   1
    6  613.6323683  150.3936486   -1.5884090  -0.5000  -0.5000   0.5000   -1.5824673   -1.5847046    1.5814556   1
    6  612.0692158  151.5590786   -1.2414611  -0.5000  -0.5000   0.5000   -1.5824673   -1.5847046    1.5814556   1
    6  611.0448924  153.8631547   -1.3169048  -0.5000  -0.5000   0.5000   -1.5824673   -1.5847046    1.5814556   1
    6  610.5663002  155.7812485   -0.7224824  -0.5000  -0.5000   0.5000   -1.5824673   -1.5847046    1.5814556   1
    6  611.2600996  156.6161240    1.0381179  -0.5000  -0.5000   0.5000   -1.5824673   -1.5847046    1.5814556   1
    6  612.8773395  156.5942693    3.0414188  -0.5000  -0.5000   0.5000   -1.5824673   -1.5847046    1.5814556   1
    6  614.1725611  155.6332782    4.2449154  -0.5000  -0.5000   0.5000   -1.5824673   -1.5847046    1.5814556   1
    6  614.9112177  153.9771900    4.2320286  -0.5000  -0.5000   0.5000   -1.5824673   -1.5847046    1.5814556   1
    6  615.4277430  152.6121657    2.8187840  -0.5000  -0.5000   0.5000   -1.5824673   -1.5847046    1.5814556   1
    6  615.4224160  151.6793707    0.7081034  -0.5000  -0.5000   0.5000   -1.5824673   -1.5847046    1.5814556   1
    6  615.4992756  151.3206332   -1.0271016  -0.5000  -0.5000   0.5000   -1.5824673   -1.5847046    1.5814556   1
    6  616.2005826  151.4892515   -2.9143109  -0.5000  -0.5000   0.5000   -1.5824673   -1.5847046    1.5814556   1
    7  532.0910744   47.0529003  122.2746800   0.5000   0.5000  -0.5000    1.5824673    1.5847046   -1.5814556   0
    7  535.7349776   45.5896727  123.6707961   0.5000   0.5000  -0.5000    1.5824673    1.5847046   -1.5814556   0
    7  536.9515187   44.2631406  124.3407587   0.5000   0.5000  -0.5000    1.5824673    1.5847046   -1.5814556   0
    7  538.0780293   43.5658587  126.0416121   0.5000   0.5000  -0.5000    1.5824673    1.5847046   -1.5814556   0
    7  539.2427253   44.0773601  128.2597065   0.5000   0.5000  -0.5000    1.5824673    1.5847046   -1.5814556   0
    7  539.2617175   45.7091503  129.6979685   0.5000   0.5000  -0.5000    1.5824673    1.5847046   -1.5814556   0
    7  538.5546799   47.4492793  130.8844776   0.5000   0.5000  -0.5000    1.5824673    1.5847046   -1.5814556   0
    7  538.1844009   48.7221389  132.2724018   0.5000   0.5000  -0.5000    1.5824673    1.5847046   -1.5814556   0
    7  538.8001647   49.8497070  133.8899738   0.5000   0.5000  -0.5000    1.5824673    1.5847046   -1.5814556   0
    7  539.4800641   51.3414513  135.4481551   0.5000   0.5000  -0.5000    1.5824673    1.5847046   -1.5814556   0
    7  538.7565133   53.0701685  136.3201563   0.5000   0.5000  -0.5000    1.5824673    1.5847046   -1.5814556   0
    7  536.8366277   54.4617577  136.1463434   0.5000   0.5000  -0.5000    1.5824673    1.5847046   -1.5814556   0
    7  534.8122774   55.2868997  135.3983129   0.5000   0.5000  -0.5000    1.5824673    1.5847046   -1.5814556   0
    7  532.5748660   55.2499536  134.8114696   0.5000   0.5000  -0.5000    1.5824673    1.5847046   -1.5814556   0
    7  530.4411541   54.4760798  134.3570343   0.5000   0.5000  -0.5000    1.5824673    1.5847046   -1.5814556   0
    7  528.8702728   53.5586849  133.7215711   0.5000   0.5000  -0.5000    1.5824673    1.5847046   -1.5814556   0
    7  527.4215012   52.6536633  132.4715501   0.5000   0.5000  -0.5000    1.5824673    1.5847046   -1.5814556   0
    7  526.5986817   52.3155288  130.9738755   0.5000   0.5000  -0.5000    1.5824673    1.5847046   -1.5814556   0
    7  528.0900408   51.2390018  128.3008075   0.5000   0.5000  -0.5000    1.5824673    1.5847046   -1.5814556   0
    7  532.0910744   47.0529003  122.2746800   0.5000   0.5000  -0.5000    1.5824673    1.5847046   -1.5814556   0
    8  390.4570447  101.1439000  566.4839241   0.5000   0.5000  -0.5000    1.5824673    1.5847046   -1.5814556   0
    8  388.5294825  103.0185276  565.0709646   0.5000   0.5000  -0.5000    1.5824673    1.5847046   -1.5814556   0
    8  387.7315655  105.4187625  565.3291005   0.5000   0.5000  -0.5000    1.5824673    1.5847046   -1.5814556   0
    8  385.7396525  107.2011838  566.0901145   0.5000   0.5000  -0.5000    1.5824673    1.5847046   -1.5814556   0
    8  382.5581984  108.0352425  566.1020693   0.5000   0.5000  -0.5000    1.5824673    1.5847046   -1.5814556   0
    8  379.9621555  108.5523153  565.7068306   0.5000   0.5000  -0.5000    1.5824673    1.5847046   -1.5814556   0
    8  377.1826512  108.8109571  565.5473195   0.5000   0.5000  -0.5000    1.5824673    1.5847046   -1.5814556   0
    8  374.4476365  108.7309336  565.2367860   0.5000   0.5000  -0.5000    1.5824673    1.5847046   -1.5814556   0
    8  372.7679755  108.2631813  564.0767676   0.5000   0.5000  -0.5000    1.5824673    1.5847046   -1.5814556   0
    8  371.3788778  107.3516493  562.5237423   0.5000   0.5000  -0.5000    1.5824673    1.5847046   -1.5814556   0
    8  370.0185023  106.0950877  561.2370941   0.5000   0.5000  -0.5000    1.5824673    1.5847046   -1.5814556   0
    8  369.1166065  105.0341598  559.6905601   0.5000   0.5000  -0.5000    1.5824673    1.5847046   -1.5814556   0
    8  368.6964939  103.9293916  557.8213577   0.5000   0.5000  -0.5000    1.5824673    1.5847046   -1.5814556   0
    8  368.5818581  102.2917221  556.2376308   0.5000   0.5000  -0.5000    1.5824673    1.5847046   -1.5814556   0
    8  368.5783706  100.6288405  554.7332770   0.5000   0.5000  -0.5000    1.5824673    1.5847046   -1.5814556   0
    8  368.5778300   99.0898283  553.1375274   0.5000   0.5000  -0.5000    1.5824673    1.5847046   -1.5814556   0
    8  368.5888206   97.5250442  551.5272732   0.5000   0.5000  -0.5000    1.5824673    1.5847046   -1.5814556   0
    8  368.5676275   95.9086654  549.9972547   0.5000   0.5000  -0.5000    1.5824673    1.5847046   -1.5814556   0
    8  368.4657746   94.5397508  548.3470548   0.5000   0.5000  -0.5000    1.5824673    1.5847046   -1.5814556   0
    8  367.6181105   93.7814718  546.7702538   0.5000   0.5000  -0.5000    1.5824673    1.5847046   -1.5814556   0
    8  365.6299072   93.6687876  545.3042209   0.5000   0.5000  -0.5000    1.5824673    1.5847046   -1.5814556   0
    8  364.0408222   93.3739533  543.5922694   0.5000   0.5000  -0.5000    1.5824673    1.5847046   -1.5814556   0
    8  363.5544670   92.1843689  542.1559701   0.5000   0.5000  -0.5000    1.5824673    1.5847046   -1.5814556   0
    8  363.9010938   90.8338165  541.1011525   0.5000   0.5000  -0.5000    1.5824673    1.5847046   -1.5814556   0
    8  365.3065650   90.0095479  540.8414462   0.5000   0.5000  -0.5000    1.5824673    1.5847046   -1.5814556   0
    8  367.7764975   89.5950740  541.2174827   0.5000   0.5000  -0.5000    1.5824673    1.5847046   -1.5814556   0
    8  370.8676367   89.1852445  541.0765575   0.5000   0.5000  -0.5000    1.5824673    1.5847046   -1.5814556   0
    8  373.2786983   88.8179052  540.4686729   0.5000   0.5000  -0.5000    1.5824673    1.5847046   -1.5814556   0
    8  374.5746661   88.4639684  539.7820395   0.5000   0.5000  -0.5000    1.5824673    1.5847046   -1.5814556   0
    8  375.6619539   87.7312719  539.6935469   0.5000   0.5000  -0.5000    1.5824673    1.5847046   -1.5814556   0