ITEM: TIMESTEP
0
ITEM: NUMBER OF ATOMS
8351
ITEM: BOX BOUNDS pp pp pp 
0.0 695.637109
0.0 696.822467
0.0 698.027733
ITEM: ATOMS id x y z tbx tby tbz sbx sby sbz loop
    0  399.7635715  542.8280715    1.9390667   0.5000   0.5000   0.5000    1.5790293    1.5805649    1.5828386   0
    0  400.5642145  541.5602175    1.5869504   0.5000   0.5000   0.5000    1.5790293    1.5805649    1.5828386   0
    0  401.1203833  540.3968524    1.7103820   0.5000   0.5000   0.5000    1.5790293    1.5805649    1.5828386   0
    0  402.4948532  538.9833677    2.1949913   0.5000   0.5000   0.5000    1.5790293    1.5805649    1.5828386   0
    0  404.1773784  536.7513823    2.0659607   0.5000   0.5000   0.5000    1.5790293    1.5805649    1.5828386   0
    0  405.3414806  535.1523978    1.5848101   0.5000   0.5000   0.5000    1.5790293    1.5805649    1.5828386   0
    0  405.3970841  535.3513471    2.9140844   0.5000   0.5000   0.5000    1.5790293    1.5805649    1.5828386   0
    0  404.7527368  535.7154517    5.3199521   0.5000   0.5000   0.5000    1.5790293    1.5805649    1.5828386   0
    0  404.1169519  535.9908923    7.0367389   0.5000   0.5000   0.5000    1.5790293    1.5805649    1.5828386   0
    0  403.3956831  536.7876150    9.1173636   0.5000   0.5000   0.5000    1.5790293    1.5805649    1.5828386   0
    0  402.6190183  536.9803782   11.9532584   0.5000   0.5000   0.5000    1.5790293    1.5805649    1.5828386   0
    0  402.0029243  536.4000216   14.4074929   0.5000   0.5000   0.5000    1.5790293    1.5805649    1.5828386   0
    0  401.4932607  536.3598569   16.1888372   0.5000   0.5000   0.5000    1.5790293    1.5805649    1.5828386   0
    0  401.1865913  536.8375678   17.7690932   0.5000   0.5000   0.5000    1.5790293    1.5805649    1.5828386   0
    0  401.9611545  536.5851125   18.8636875   0.5000   0.5000   0.5000    1.5790293    1.5805649    1.5828386   0
    0  403.0653652  535.3676631   18.5108284   0.5000   0.5000   0.5000    1.5790293    1.5805649    1.5828386   0
    0  403.2068470  533.9660833   17.6175457   0.5000   0.5000   0.5000    1.5790293    1.5805649    1.5828386   0
    0  403.2257081  532.7298949   17.9970126   0.5000   0.5000   0.5000    1.5790293    1.5805649    1.5828386   0
    0  403.4764300  531.9626514   19.8573421   0.5000   0.5000   0.5000    1.5790293    1.5805649    1.5828386   0
    0  403.6395842  531.5626748   21.8581217   0.5000   0.5000   0.5000    1.5790293    1.5805649    1.5828386   0
    0  403.7610980  530.4854452   23.1032677   0.5000   0.5000   0.5000    1.5790293    1.5805649    1.5828386   0
    0  404.5925298  528.7788381   24.2933408   0.5000   0.5000   0.5000    1.5790293    1.5805649    1.5828386   0
    0  405.6192417  527.3641910   25.2007138   0.5000   0.5000   0.5000    1.5790293    1.5805649    1.5828386   0
    0  404.6279755  526.7573967   25.5085867   0.5000   0.5000   0.5000    1.5790293    1.5805649    1.5828386   0
    0  402.9796725  527.4463931   25.7567483   0.5000   0.5000   0.5000    1.5790293    1.5805649    1.5828386   0
    0  402.7656899  529.2006749   26.2786015   0.5000   0.5000   0.5000    1.5790293    1.5805649    1.5828386   0
    0  402.8798270  531.1008058   27.1193545   0.5000   0.5000   0.5000    1.5790293    1.5805649    1.5828386   0
    0  401.9344804  532.7827197   27.5150468   0.5000   0.5000   0.5000    1.5790293    1.5805649    1.5828386   0
    0  400.2666979  534.4910757   27.5217486   0.5000   0.5000   0.5000    1.5790293    1.5805649    1.5828386   0
    0  398.9671765  536.0545670   27.7035966   0.5000   0.5000   0.5000    1.5790293    1.5805649    1.5828386   0
    0  397.9893131  537.4305788   27.5827147   0.5000   0.5000   0.5000    1.5790293    1.5805649    1.5828386   0
    0  397.2987144  539.6067856   26.9014286   0.5000   0.5000   0.5000    1.5790293    1.5805649    1.5828386   0
    1  667.6520314  663.1144410  560.6985949   0.5000   0.5000  -0.5000    1.5822880    1.5841966   -1.5812721   1
    1  666.4775762  662.2067057  561.3470133   0.5000   0.5000  -0.5000    1.5822880    1.5841966   -1.5812721   1
    1  664.0996055  661.6750261  561.3461497   0.5000   0.5000  -0.5000    1.5822880    1.5841966   -1.5812721   1
    1  662.5978276  661.1786293  559.9290338   0.5000   0.5000  -0.5000    1.5822880    1.5841966   -1.5812721   1
    1  662.1813713  659.5776708  558.3178206   0.5000   0.5000  -0.5000    1.5822880    1.5841966   -1.5812721   1
    1  662.4822664  657.4537077  557.3917412   0.5000   0.5000  -0.5000    1.5822880    1.5841966   -1.5812721   1
    1  663.3951168  655.6778023  556.4210633   0.5000   0.5000  -0.5000    1.5822880    1.5841966   -1.5812721   1
    1  664.4519677  653.7124346  555.8653547   0.5000   0.5000  -0.5000    1.5822880    1.5841966   -1.5812721   1
    1  666.1312835  651.9387377  556.1251967   0.5000   0.5000  -0.5000    1.5822880    1.5841966   -1.5812721   1
    1  668.0164324  651.4919539  556.9767170   0.5000   0.5000  -0.5000    1.5822880    1.5841966   -1.5812721   1
    1  669.5777099  652.1015460  558.3061426   0.5000   0.5000  -0.5000    1.5822880    1.5841966   -1.5812721   1
    1  671.1280030  653.0531312  559.5946217   0.5000   0.5000  -0.5000    1.5822880    1.5841966   -1.5812721   1
    1  671.8967002  654.1541181  561.2754502   0.5000   0.5000  -0.5000    1.5822880    1.5841966   -1.5812721   1
    1  671.9352398  655.7332160  563.0550722   0.5000   0.5000  -0.5000    1.5822880    1.5841966   -1.5812721   1
    1  671.2824427  657.6605309  563.7793363   0.5000   0.5000  -0.5000    1.5822880    1.5841966   -1.5812721   1
    1  669.8735311  659.4157036  563.3565801   0.5000   0.5000  -0.5000    1.5822880    1.5841966   -1.5812721   1
    1  668.3946908  660.5865076  562.4553666   0.5000   0.5000  -0.5000    1.5822880    1.5841966   -1.5812721   1
    1  667.6660124  661.5955531  561.6111519   0.5000   0.5000  -0.5000    1.5822880    1.5841966   -1.5812721   1
    1  667.6520315  663.1144409  560.6985949   0.5000   0.5000  -0.5000    1.5822880    1.5841966   -1.5812721   1
    2  445.8880685  627.4163943  506.6941131   0.5000  -0.5000   0.5000    1.5818748   -1.5836093    1.5798289   0
    2  448.0757361  626.0483384  509.9282100   0.5000  -0.5000   0.5000    1.5818748   -1.5836093    1.5798289   0
    2  450.2936617  625.1848127  511.9649350   0.5000  -0.5000   0.5000    1.5818748   -1.5836093    1.5798289   0
    2  452.1788823  624.6726349  513.2362855   0.5000  -0.5000   0.5000    1.5818748   -1.5836093    1.5798289   0
    2  453.7600322  623.4525819  514.6821462   0.5000  -0.5000   0.5000    1.5818748   -1.5836093    1.5798289   0
    2  455.3560687  621.7051842  516.3030468   0.5000  -0.5000   0.5000    1.5818748   -1.5836093    1.5798289   0
    2  456.8319035  620.2612003  517.9560351   0.5000  -0.5000   0.5000    1.5818748   -1.5836093    1.5798289   0
    2  458.0227178  619.4121243  519.7060205   0.5000  -0.5000   0.5000    1.5818748   -1.5836093    1.5798289   0
    2  459.4191842  618.7744296  521.4155294   0.5000  -0.5000   0.5000    1.5818748   -1.5836093    1.5798289   0
    2  461.3323505  618.0580226  522.8844130   0.5000  -0.5000   0.5000    1.5818748   -1.5836093    1.5798289   0
    2  462.9204350  617.5981414  524.4328832   0.5000  -0.5000   0.5000    1.5818748   -1.5836093    1.5798289   0
    2  463.4192460  617.4812064  526.5908096   0.5000  -0.5000   0.5000    1.5818748   -1.5836093    1.5798289   0
    3  445.8880685  627.4163943  506.6941131  -0.5000   0.5000  -0.5000   -1.5818748    1.5836093   -1.5798289   0
    3  446.5650211  626.2072196  509.7332323  -0.5000   0.5000  -0.5000   -1.5818748    1.5836093   -1.5798289   0
    3  445.2132410  626.6520759  510.4376022  -0.5000   0.5000  -0.5000   -1.5818748    1.5836093   -1.5798289   0
    3  443.6687734  628.0825680  508.7516335  -0.5000   0.5000  -0.5000   -1.5818748    1.5836093   -1.5798289   0
    3  443.3554680  628.9341618  506.6118311  -0.5000   0.5000  -0.5000   -1.5818748    1.5836093   -1.5798289   0
    3  444.0209181  628.6881661  505.8770281  -0.5000   0.5000  -0.5000   -1.5818748    1.5836093   -1.5798289   0
    3  445.8880685  627.4163943  506.6941131  -0.5000   0.5000  -0.5000   -1.5818748    1.5836093   -1.5798289   0
    4  522.3643222  661.0490729  272.5194081   0.5000  -0.5000  -0.5000    1.5851335   -1.5799777   -1.5842819   1
    4  522.1125514  662.6337575  272.2196630   0.5000  -0.5000  -0.5000    1.5851335   -1.5799777   -1.5842819   1
    4  523.3320724  664.4318335  272.0504134   0.5000  -0.5000  -0.5000    1.5851335   -1.5799777   -1.5842819   1
    4  524.2935595  666.6151043  271.6088234   0.5000  -0.5000  -0.5000    1.5851335   -1.5799777   -1.5842819   1
    4  524.8409441  668.4122180  270.7661427   0.5000  -0.5000  -0.5000    1.5851335   -1.5799777   -1.5842819   1
    4  524.9413098  669.6986264  269.5986229   0.5000  -0.5000  -0.5000    1.5851335   -1.5799777   -1.5842819   1
    4  524.7247337  671.1915675  268.2122273   0.5000  -0.5000  -0.5000    1.5851335   -1.5799777   -1.5842819   1
    4  524.5851413  673.0822935  266.6344107   0.5000  -0.5000  -0.5000    1.5851335   -1.5799777   -1.5842819   1
    4  523.9525265  674.1502421  264.9766392   0.5000  -0.5000  -0.5000    1.5851335   -1.5799777   -1.5842819   1
    4  522.7416436  673.6590927  263.6145312   0.5000  -0.5000  -0.5000    1.5851335   -1.5799777   -1.5842819   1
    4  520.8850503  672.8842101  262.8722458   0.5000  -0.5000  -0.5000    1.5851335   -1.5799777   -1.5842819   1
    4  518.8323730  671.9392103  262.7492210   0.5000  -0.5000  -0.5000    1.5851335   -1.5799777   -1.5842819   1
    4  517.1906632  670.4260400  262.8406552   0.5000  -0.5000  -0.5000    1.5851335   -1.5799777   -1.5842819   1
    4  515.5991442  668.7748774  262.7312410   0.5000  -0.5000  -0.5000    1.5851335   -1.5799777   -1.5842819   1
    4  514.7882916  666.7878090  263.0790611   0.5000  -0.5000  -0.5000    1.5851335   -1.5799777   -1.5842819   1
    4  514.8581376  665.1940424  264.6598976   0.5000  -0.5000  -0.5000    1.5851335   -1.5799777   -1.5842819   1
    4  515.5873341  664.3751917  266.6310517   0.5000  -0.5000  -0.5000    1.5851335   -1.5799777   -1.5842819   1
    4  517.2486532  663.5155020  268.0119488   0.5000  -0.5000  -0.5000    1.5851335   -1.5799777   -1.5842819   1
    4  518.7877157  662.5426910  269.1163515   0.5000  -0.5000  -0.5000    1.5851335   -1.5799777   -1.5842819   1
    4  520.1073264  661.6719912  270.4413690   0.5000  -0.5000  -0.5000    1.5851335   -1.5799777   -1.5842819   1
    4  521.4602184  660.9948559  271.5789095   0.5000  -0.5000  -0.5000    1.5851335   -1.5799777   -1.5842819   1
    4  522.3643223  661.0490729  272.5194080   0.5000  -0.5000  -0.5000    1.5851335   -1.5799777   -1.5842819   1
    5  419.6105502  438.1188659   28.6389779  -0.5000  -0.5000  -0.5000   -1.5790293   -1.5805649   -1.5828386   1
    5  419.3433591  439.4742480   28.0561936  -0.5000  -0.5000  -0.5000   -1.5790293   -1.5805649   -1.5828386   1
    5  418.6349089  440.8172501   26.6309133  -0.5000  -0.5000  -0.5000   -1.5790293   -1.5805649   -1.5828386   1
    5  417.2429145  442.4421074   25.5315642  -0.5000  -0.5000  -0.5000   -1.5790293   -1.5805649   -1.5828386   1
    5  415.9235997  443.6970874   25.1869463  -0.5000  -0.5000  -0.5000   -1.5790293   -1.5805649   -1.5828386   1
    5  414.7687990  444.0805400   26.2297598  -0.5000  -0.5000  -0.5000   -1.5790293   -1.5805649   -1.5828386   1
    5  413.2403757  444.3254708   28.2498046  -0.5000  -0.5000  -0.5000   -1.5790293   -1.5805649   -1.5828386   1
    5  411.6086655  444.8398749   30.3298770  -0.5000  -0.5000  -0.5000   -1.5790293   -1.5805649   -1.5828386   1
    5  410.0275314  445.3354370   31.7179035  -0.5000  -0.5000  -0.5000   -1.5790293   -1.5805649   -1.5828386   1
    5  408.9154313  444.8695874   33.3802113  -0.5000  -0.5000  -0.5000   -1.5790293   -1.5805649   -1.5828386   1
    5  408.7590046  443.2109333   35.4205790  -0.5000  -0.5000  -0.5000   -1.5790293   -1.5805649   -1.5828386   1
    5  409.3999508  441.1804038   36.4524664  -0.5000  -0.5000  -0.5000   -1.5790293   -1.5805649   -1.5828386   1
    5  410.8574397  439.4303298   36.7078291  -0.5000  -0.5000  -0.5000   -1.5790293   -1.5805649   -1.5828386   1
    5  412.8579323  438.7039170   36.2837674  -0.5000  -0.5000  -0.5000   -1.5790293   -1.5805649   -1.5828386   1
    5  414.7796938  438.8271475   35.0215664  -0.5000  -0.5000  -0.5000   -1.5790293   -1.5805649   -1.5828386   1
    5  416.4842378  438.9231282   33.5851915  -0.5000  -0.5000  -0.5000   -1.5790293   -1.5805649   -1.5828386   1
    5  417.6515204  438.5362849   31.5752834  -0.5000  -0.5000  -0.5000   -1.5790293   -1.5805649   -1.5828386   1
    5  418.4343709  437.9804188   29.7758891  -0.5000  -0.5000  -0.5000   -1.5790293   -1.5805649   -1.5828386   1
    5  419.6105502  438.1188657   28.6389779  -0.5000  -0.5000  -0.5000   -1.5790293   -1.5805649   -1.5828386   1
    6  633.0827833   65.0060250  675.8956333   0.5000   0.5000  -0.5000    1.5822880    1.5841966   -1.5812721   0
    6  634.0513566   65.8783590  673.5883174   0.5000   0.5000  -0.5000    1.5822880    1.5841966   -1.5812721   0
    6  635.1309272   67.5788809  671.1472884   0.5000   0.5000  -0.5000    1.5822880    1.5841966   -1.5812721   0
    6  635.8787903   69.5652768  669.1634826   0.5000   0.5000  -0.5000    1.5822880    1.5841966   -1.5812721   0
    6  636.2940093   70.9192502  667.4491581   0.5000   0.5000  -0.5000    1.5822880    1.5841966   -1.5812721   0
    6  637.5634018   70.9394722  665.8557563   0.5000   0.5000  -0.5000    1.5822880    1.5841966   -1.5812721   0
    6  638.5562976   70.6521936  664.7830809   0.5000   0.5000  -0.5000    1.5822880    1.5841966   -1.5812721   0
    6  638.0269056   71.6224395  663.4392180   0.5000   0.5000  -0.5000    1.5822880    1.5841966   -1.5812721   0
    6  637.8096385   72.8373472  660.6980293   0.5000   0.5000  -0.5000    1.5822880    1.5841966   -1.5812721   0
    6  638.6856206   72.9771460  657.6533714   0.5000   0.5000  -0.5000    1.5822880    1.5841966   -1.5812721   0
    6  639.8254227   72.4371058  655.7586461   0.5000   0.5000  -0.5000    1.5822880    1.5841966   -1.5812721   0
    6  640.2790508   71.8420129  653.9959102   0.5000   0.5000  -0.5000    1.5822880    1.5841966   -1.5812721   0
    6  640.5699556   71.3769104  652.0150552   0.5000   0.5000  -0.5000    1.5822880    1.5841966   -1.5812721   0
    6  641.8685998   71.2170090  650.5110135   0.5000   0.5000  -0.5000    1.5822880    1.5841966   -1.5812721   0
    6  643.9329537   70.9197101  649.3512313   0.5000   0.5000  -0.5000    1.5822880    1.5841966   -1.5812721   0
    6  646.2784163   70.3327408  648.3843280   0.5000   0.5000  -0.5000    1.5822880    1.5841966   -1.5812721   0
    6  648.3761725   70.0009491  647.2990776   0.5000   0.5000  -0.5000    1.5822880    1.5841966   -1.5812721   0
    6  650.6382935   69.9340154  646.5561260   0.5000   0.5000  -0.5000    1.5822880    1.5841966   -1.5812721   0
    6  652.9315603   70.3831390  645.8468685   0.5000   0.5000  -0.5000    1.5822880    1.5841966   -1.5812721   0
    6  654.0239135   71.0799118  644.2256040   0.5000   0.5000  -0.5000    1.5822880    1.5841966   -1.5812721   0
    6  654.9515746   71.3780707  643.3957968   0.5000   0.5000  -0.5000    1.5822880    1.5841966   -1.5812721   0
    6  657.0518214   71.4187325  644.5770049   0.5000   0.5000  -0.5000    1.5822880    1.5841966   -1.5812721   0
    6  659.3782745   71.5534927  645.6325068   0.5000   0.5000  -0.5000    1.5822880    1.5841966   -1.5812721   0
    6  661.2534640   72.1510388  645.4712776   0.5000   0.5000  -0.5000    1.5822880    1.5841966   -1.5812721   0
    6  662.7696319   72.4864362  645.0377282   0.5000   0.5000  -0.5000    1.5822880    1.5841966   -1.5812721   0
    6  664.2822011   72.2203241  644.5936803   0.5000   0.5000  -0.5000    1.5822880    1.5841966   -1.5812721   0
    6  666.5085805   72.7036369  643.8357065   0.5000   0.5000  -0.5000    1.5822880    1.5841966   -1.5812721   0
    6  669.3284745   73.6347890  642.8596276   0.5000   0.5000  -0.5000    1.5822880    1.5841966   -1.5812721   0
    6  672.2206334   73.9707283  642.2687310   0.5000   0.5000  -0.5000    1.5822880    1.5841966   -1.5812721   0
    6  674.5368250   74.6363552  642.1576162   0.5000   0.5000  -0.5000    1.5822880    1.5841966   -1.5812721   0
    6  676.4246158   76.0092137  642.3493982   0.5000   0.5000  -0.5000    1.5822880    1.5841966   -1.5812721   0
    6  678.8594329   76.9101191  642.4917208   0.5000   0.5000  -0.5000    1.5822880    1.5841966   -1.5812721   0
    6  680.9530146   77.9288763  642.2609224   0.5000   0.5000  -0.5000    1.5822880    1.5841966   -1.5812721   0
    6  681.5779061   80.1370606  642.3935275   0.5000   0.5000  -0.5000    1.5822880    1.5841966   -1.5812721   0
    6  682.0250617   82.0003803  643.2779499   0.5000   0.5000  -0.5000    1.5822880    1.5841966   -1.5812721   0
    6  683.3017098   83.2418129  643.8430751   0.5000   0.5000  -0.5000    1.5822880    1.5841966   -1.5812721   0
    6  684.9323141   84.6735476  643.8052445   0.5000   0.5000  -0.5000    1.5822880    1.5841966   -1.5812721   0
    6  686.6017957   85.6148785  644.2207569   0.5000   0.5000  -0.5000    1.5822880    1.5841966   -1.5812721   0
    6  688.2295683   86.2542502  645.4112710   0.5000   0.5000  -0.5000    1.5822880    1.5841966   -1.5812721   0
    6  689.5753899   87.4973654  646.1061485   0.5000   0.5000  -0.5000    1.5822880    1.5841966   -1.5812721   0
    6  689.9666783   89.3221916  646.0730252   0.5000   0.5000  -0.5000    1.5822880    1.5841966   -1.5812721   0
    6  689.9763884   90.8887079  646.4441494   0.5000   0.5000  -0.5000    1.5822880    1.5841966   -1.5812721   0
    6  691.1337691   91.8102849  646.7179190   0.5000   0.5000  -0.5000    1.5822880    1.5841966   -1.5812721   0
    6  692.7325539   92.7343795  646.4654910   0.5000   0.5000  -0.5000    1.5822880    1.5841966   -1.5812721   0
    6  694.2249254   93.8562684  646.2274694   0.5000   0.5000  -0.5000    1.5822880    1.5841966   -1.5812721   0
    6  696.3191899   94.8175958  645.7504210   0.5000   0.5000  -0.5000    1.5822880    1.5841966   -1.5812721   0
    6  698.3897169   95.6509152  644.5888401   0.5000   0.5000  -0.5000    1.5822880    1.5841966   -1.5812721   0
    6  699.9919860   96.2858316  642.8922891   0.5000   0.5000  -0.5000    1.5822880    1.5841966   -1.5812721   0
    6  701.6481523   96.3728311  641.3612273   0.5000   0.5000  -0.5000    1.5822880    1.5841966   -1.5812721   0
    6  703.7793773   95.8546518  640.9504120   0.5000   0.5000  -0.5000    1.5822880    1.5841966   -1.5812721   0
    6  706.0935814   95.8777571  640.8449144   0.5000   0.5000  -0.5000    1.5822880    1.5841966   -1.5812721   0
    6  708.0426334   97.0843048  639.6756104   0.5000   0.5000  -0.5000    1.5822880    1.5841966   -1.5812721   0
    6  709.5279688   97.9662323  637.8285726   0.5000   0.5000  -0.5000    1.5822880    1.5841966   -1.5812721   0
    6  710.8344030   97.7460828  635.7036372   0.5000   0.5000  -0.5000    1.5822880    1.5841966   -1.5812721   0
    6  712.3542248   97.2694442  633.5309912   0.5000   0.5000  -0.5000    1.5822880    1.5841966   -1.5812721   0
    6  713.8351186   97.1174715  631.7870720   0.5000   0.5000  -0.5000    1.5822880    1.5841966   -1.5812721   0
    6  715.2535049   97.1343352  630.4307969   0.5000   0.5000  -0.5000    1.5822880    1.5841966   -1.5812721   0
    6  716.7660032   96.7220667  629.0056156   0.5000   0.5000  -0.5000    1.5822880    1.5841966   -1.5812721   0
    6  718.2092464   95.8773456  627.5284409   0.5000   0.5000  -0.5000    1.5822880    1.5841966   -1.5812721   0
    6  719.5144449   95.4648323  626.0245273   0.5000   0.5000  -0.5000    1.5822880    1.5841966   -1.5812721   0
    6  720.4959580   95.7855549  624.0600373   0.5000   0.5000  -0.5000    1.5822880    1.5841966   -1.5812721   0
    6  721.3949989   96.0128287  621.9407488   0.5000   0.5000  -0.5000    1.5822880    1.5841966   -1.5812721   0
    6  722.5749375   95.3141940  620.2904122   0.5000   0.5000  -0.5000    1.5822880    1.5841966   -1.5812721   0
    6  723.7340952   94.2023787  618.9589976   0.5000   0.5000  -0.5000    1.5822880    1.5841966   -1.5812721   0
    6  724.9447650   93.5331340  617.7938455   0.5000   0.5000  -0.5000    1.5822880    1.5841966   -1.5812721   0
    6  727.2006343   93.2183581  617.2461642   0.5000   0.5000  -0.5000    1.5822880    1.5841966   -1.5812721   0
    6  729.9016354   93.1785542  617.5757078   0.5000   0.5000  -0.5000    1.5822880    1.5841966   -1.5812721   0
    6  731.4624472   93.5767455  618.1816875   0.5000   0.5000  -0.5000    1.5822880    1.5841966   -1.5812721   0
    6  732.2542823   94.6422365  618.8037187   0.5000   0.5000  -0.5000    1.5822880    1.5841966   -1.5812721   0
    6  733.0009587   96.2588429  620.0957142   0.5000   0.5000  -0.5000    1.5822880    1.5841966   -1.5812721   0
    7  552.3620242  311.3413889  401.3478832   0.5000  -0.5000  -0.5000    1.5851335   -1.5799777   -1.5842819   1
    7  554.6164644  310.9247381  400.8687952   0.5000  -0.5000  -0.5000    1.5851335   -1.5799777   -1.5842819   1
    7  556.6587003  310.2091184  401.1794567   0.5000  -0.5000  -0.5000    1.5851335   -1.5799777   -1.5842819   1
    7  558.5554317  310.0060125  402.5866449   0.5000  -0.5000  -0.5000    1.5851335   -1.5799777   -1.5842819   1
    7  560.5658054  310.0217066  404.4608736   0.5000  -0.5000  -0.5000    1.5851335   -1.5799777   -1.5842819   1
    7  562.8804259  310.4573784  405.2820385   0.5000  -0.5000  -0.5000    1.5851335   -1.5799777   -1.5842819   1
    7  564.6306756  311.7569814  405.0615965   0.5000  -0.5000  -0.5000    1.5851335   -1.5799777   -1.5842819   1
    7  565.1959016  313.3394129  404.0956507   0.5000  -0.5000  -0.5000    1.5851335   -1.5799777   -1.5842819   1
    7  564.7251096  315.0772211  402.8919909   0.5000  -0.5000  -0.5000    1.5851335   -1.5799777   -1.5842819   1
    7  563.8309191  316.3964941  401.6041097   0.5000  -0.5000  -0.5000    1.5851335   -1.5799777   -1.5842819   1
    7  562.7898427  316.5235253  399.9980194   0.5000  -0.5000  -0.5000    1.5851335   -1.5799777   -1.5842819   1
    7  561.3668245  315.7168450  398.6651575   0.5000  -0.5000  -0.5000    1.5851335   -1.5799777   -1.5842819   1
    7  559.2043211  314.4218399  397.9156174   0.5000  -0.5000  -0.5000    1.5851335   -1.5799777   -1.5842819   1
    7  556.7101436  313.1679778  397.9338443   0.5000  -0.5000  -0.5000    1.5851335   -1.5799777   -1.5842819   1
    7  555.0784288  312.0609339  398.9776159   0.5000  -0.5000  -0.5000    1.5851335   -1.5799777   -1.5842819   1
    7  553.7121870  311.4535314  400.2756311   0.5000  -0.5000  -0.5000    1.5851335   -1.5799777   -1.5842819   1
    7  552.3620242  311.3413889  401.3478832   0.5000  -0.5000  -0.5000    1.5851335   -1.5799777   -1.5842819   1
    8   -0.5364483  114.6687014  191.6106215  -0.5000  -0.5000  -0.5000   -1.5790293   -1.5805649   -1.5828386   0
    8    0.3878321  114.1269619  189.6641624  -0.5000  -0.5000  -0.5000   -1.5790293   -1.5805649   -1.5828386   0
    8    1.5116408  113.7810828  187.5951430  -0.5000  -0.5000  -0.5000   -1.5790293   -1.5805649   -1.5828386   0
    8    2.6785913  114.3049256  186.0552462  -0.5000  -0.5000  -0.5000   -1.5790293   -1.5805649   -1.5828386   0
    8    3.4891332  115.5265141  184.6257481  -0.5000  -0.5000  -0.5000   -1.5790293   -1.5805649   -1.5828386   0
    8    3.6670161  116.4763731  182.6351875  -0.5000  -0.5000  -0.5000   -1.5790293   -1.5805649   -1.5828386   0
    8    2.6618152  117.2949497  181.3783948  -0.5000  -0.5000  -0.5000   -1.5790293   -1.5805649   -1.5828386   0
    8    0.4307232  117.6239956  180.0989074  -0.5000  -0.5000  -0.5000   -1.5790293   -1.5805649   -1.5828386   0
    8   -0.9785206  117.5225533  178.7516355  -0.5000  -0.5000  -0.5000   -1.5790293   -1.5805649   -1.5828386   0
    8   -0.5465685  118.4276280  179.7757190  -0.5000  -0.5000  -0.5000   -1.5790293   -1.5805649   -1.5828386   0
    8   -0.4188446  119.9797063  182.0908857  -0.5000  -0.5000  -0.5000   -1.5790293   -1.5805649   -1.5828386   0
    8   -1.4180985  120.0780515  183.9414947  -0.5000  -0.5000  -0.5000   -1.5790293   -1.5805649   -1.5828386   0
    8   -2.3830895  118.9275871  185.5398265  -0.5000  -0.5000  -0.5000   -1.5790293   -1.5805649   -1.5828386   0
    8   -2.9471504  118.0464687  187.4801125  -0.5000  -0.5000  -0.5000   -1.5790293   -1.5805649   -1.5828386   0
    8   -2.5401813  116.7919057  189.6902045  -0.5000  -0.5000  -0.5000   -1.5790293   -1.5805649   -1.5828386   0
    8   -0.5364483  114.6687014  191.6106215  -0.5000  -0.5000  -0.5000   -1.5790293   -1.5805649   -1.5828386   0
    9  190.3573572   34.6849144  197.0222143   0.5000   0.5000  -0.5000    1.5822880    1.5841966   -1.5812721   0
    9  191.8472976   37.8045706  196.6875977   0.5000   0.5000  -0.5000    1.5822880    1.5841966   -1.5812721   0
    9  193.0054625   40.0843238  196.6698412   0.5000   0.5000  -0.5000    1.5822880    1.5841966   -1.5812721   0
    9  194.0811242   41.8771350  197.3119495   0.5000   0.5000  -0.5000    1.5822880    1.5841966   -1.5812721   0
    9  195.8265489   43.3395196  197.6809899   0.5000   0.5000  -0.5000    1.5822880    1.5841966   -1.5812721   0
    9  198.1869900   44.5285878  198.0415174   0.5000   0.5000  -0.5000    1.5822880    1.5841966   -1.5812721   0
    9  200.1245627   45.2748317  199.2320219   0.5000   0.5000  -0.5000    1.5822880    1.5841966   -1.5812721   0
    9  201.7899815   45.8171783  200.7019513   0.5000   0.5000  -0.5000    1.5822880    1.5841966   -1.5812721   0
    9  203.8042681   46.4036854  202.0855635   0.5000   0.5000  -0.5000    1.5822880    1.5841966   -1.5812721   0
    9  205.8066671   46.1803255  203.8634984   0.5000   0.5000  -0.5000    1.5822880    1.5841966   -1.5812721   0
    9  206.7123289   45.5266607  205.6427744   0.5000   0.5000  -0.5000    1.5822880    1.5841966   -1.5812721   0
    9  205.9559863   46.0641998  205.7772068   0.5000   0.5000  -0.5000    1.5822880    1.5841966   -1.5812721   0
    9  204.8710872   47.5511737  204.6135581   0.5000   0.5000  -0.5000    1.5822880    1.5841966   -1.5812721   0
    9  204.3977398   49.0298160  203.9390240   0.5000   0.5000  -0.5000    1.5822880    1.5841966   -1.5812721   0
    9  204.2399005   50.7316063  203.5236613   0.5000   0.5000  -0.5000    1.5822880    1.5841966   -1.5812721   0
    9  204.3898756   52.6063225  202.4690964   0.5000   0.5000  -0.5000    1.5822880    1.5841966   -1.5812721   0
    9  204.9123119   54.2538979  200.7269163   0.5000   0.5000  -0.5000    1.5822880    1.5841966   -1.5812721   0
    9  205.4497127   56.0218194  199.1211298   0.5000   0.5000  -0.5000    1.5822880    1.5841966   -1.5812721   0
    9  205.4485510   58.2667714  198.3401591   0.5000   0.5000  -0.5000    1.5822880    1.5841966   -1.5812721   0
    9  205.1236866   60.2442998  197.6574871   0.5000   0.5000  -0.5000    1.5822880    1.5841966   -1.5812721   0
    9  204.7332358   61.7477670  196.6780311   0.5000   0.5000  -0.5000    1.5822880    1.5841966   -1.5812721   0
    9  203.6044673   63.4948773  195.9309436   0.5000   0.5000  -0.5000    1.5822880    1.5841966   -1.5812721   0
    9  201.9270403   64.8485889  194.9393684   0.5000   0.5000  -0.5000    1.5822880    1.5841966   -1.5812721   0
    9  200.6607682   64.7374884  193.4859801   0.5000   0.5000  -0.5000    1.5822880    1.5841966   -1.5812721   0
    9  200.7091070   64.4679582  192.5157751   0.5000   0.5000  -0.5000    1.5822880    1.5841966   -1.5812721   0
    9  202.1791706   65.7490779  192.1829165   0.5000   0.5000  -0.5000    1.5822880    1.5841966   -1.5812721   0
    9  203.9829171   67.6055766  191.9257609   0.5000   0.5000  -0.5000    1.5822880    1.5841966   -1.5812721   0
    9  205.5872216   69.3144683  191.8384291   0.5000   0.5000  -0.5000    1.5822880    1.5841966   -1.5812721   0
    9  206.5440271   71.2148390  191.4878603   0.5000   0.5000  -0.5000    1.5822880    1.5841966   -1.5812721   0
    9  206.8906750   72.8625701  189.6387213   0.5000   0.5000  -0.5000    1.5822880    1.5841966   -1.5812721   0
    9  207.3441493   74.0785277  187.1852019   0.5000   0.5000  -0.5000    1.5822880    1.5841966   -1.5812721   0
    9  207.6504780   75.4548048  186.0918878   0.5000   0.5000  -0.5000    1.5822880    1.5841966   -1.5812721   0
    9  207.9844559   77.1049604  185.9651021   0.5000   0.5000  -0.5000    1.5822880    1.5841966   -1.5812721   0
    9  209.0177537   78.5553808  185.7444658   0.5000   0.5000  -0.5000    1.5822880    1.5841966   -1.5812721   0
    9  210.5589089   79.7261405  185.4285305   0.5000   0.5000  -0.5000    1.5822880    1.5841966   -1.5812721   0
    9  212.3031775   80.9042389  184.9245496   0.5000   0.5000  -0.5000    1.5822880    1.5841966   -1.5812721   0
    9  214.2103813   82.2417067  184.5167298   0.5000   0.5000  -0.5000    1.5822880    1.5841966   -1.5812721   0
    9  215.7504187   83.6641093  184.5707687   0.5000   0.5000  -0.5000    1.5822880    1.5841966   -1.5812721   0
    9  217.0707628   85.1921738  184.9377317   0.5000   0.5000  -0.5000    1.5822880    1.5841966   -1.5812721   0
    9  218.9211923   86.3517537  184.9601526   0.5000   0.5000  -0.5000    1.5822880    1.5841966   -1.5812721   0
    9  220.3814929   88.3280598  184.3085579   0.5000   0.5000  -0.5000    1.5822880    1.5841966   -1.5812721   0
    9  220.8776500   93.2605950  183.7121750   0.5000   0.5000  -0.5000    1.5822880    1.5841966   -1.5812721   0
   10  322.5731737   84.3591230  167.4887406  -0.5000  -0.5000   0.5000   -1.5822880   -1.5841966    1.5812721   0
   10  324.6317486   85.6403495  171.1363215  -0.5000  -0.5000   0.5000   -1.5822880   -1.5841966    1.5812721   0
   10  325.8645518   84.5795343  171.9168348  -0.5000  -0.5000   0.5000   -1.5822880   -1.5841966    1.5812721   0