ITEM: TIMESTEP
0
ITEM: NUMBER OF ATOMS
16904
ITEM: BOX BOUNDS pp pp pp 
0.0 696.648700
0.0 696.563902
0.0 696.648878
ITEM: ATOMS id x y z tbx tby tbz sbx sby sbz loop
    0  307.0151399   72.5536554  136.1880056  -1.0000  -0.0000  -0.0000   -3.1649307    0.0000914   -0.0001873   0
    0  307.6969730   66.5954342  136.4653170  -1.0000  -0.0000  -0.0000   -3.1649307    0.0000914   -0.0001873   0
    0  308.2522651   64.0072428  135.7224720  -1.0000  -0.0000  -0.0000   -3.1649307    0.0000914   -0.0001873   0
    0  308.4652369   62.7337720  134.2709998  -1.0000  -0.0000  -0.0000   -3.1649307    0.0000914   -0.0001873   0
    0  308.2961378   61.2829092  132.5747874  -1.0000  -0.0000  -0.0000   -3.1649307    0.0000914   -0.0001873   0
    0  308.1402482   59.4953309  130.8551564  -1.0000  -0.0000  -0.0000   -3.1649307    0.0000914   -0.0001873   0
    0  308.3158836   57.4432338  129.9268728  -1.0000  -0.0000  -0.0000   -3.1649307    0.0000914   -0.0001873   0
    0  308.4516285   55.5323961  130.0928847  -1.0000  -0.0000  -0.0000   -3.1649307    0.0000914   -0.0001873   0
    0  308.5194708   53.6625510  130.7074343  -1.0000  -0.0000  -0.0000   -3.1649307    0.0000914   -0.0001873   0
    0  308.4995981   51.8729468  131.6646798  -1.0000  -0.0000  -0.0000   -3.1649307    0.0000914   -0.0001873   0
    0  308.5084726   49.9176199  132.9427960  -1.0000  -0.0000  -0.0000   -3.1649307    0.0000914   -0.0001873   0
    0  309.1945299   47.6799969  134.0768501  -1.0000  -0.0000  -0.0000   -3.1649307    0.0000914   -0.0001873   0
    0  309.9453698   45.7078280  134.8041939  -1.0000  -0.0000  -0.0000   -3.1649307    0.0000914   -0.0001873   0
    0  309.9731234   43.8629827  135.0372739  -1.0000  -0.0000  -0.0000   -3.1649307    0.0000914   -0.0001873   0
    0  309.6419323   41.9035619  135.1108917  -1.0000  -0.0000  -0.0000   -3.1649307    0.0000914   -0.0001873   0
    0  309.5351588   40.0325223  135.0149572  -1.0000  -0.0000  -0.0000   -3.1649307    0.0000914   -0.0001873   0
    0  309.5863807   38.0963035  134.9286773  -1.0000  -0.0000  -0.0000   -3.1649307    0.0000914   -0.0001873   0
    0  309.2512303   36.6538777  135.9896488  -1.0000  -0.0000  -0.0000   -3.1649307    0.0000914   -0.0001873   0
    0  308.2952516   36.0268558  138.3354251  -1.0000  -0.0000  -0.0000   -3.1649307    0.0000914   -0.0001873   0
    0  306.9325648   35.0056004  140.8973858  -1.0000  -0.0000  -0.0000   -3.1649307    0.0000914   -0.0001873   0
    0  305.9503139   33.6347720  142.3341794  -1.0000  -0.0000  -0.0000   -3.1649307    0.0000914   -0.0001873   0
    0  304.9349777   32.7963418  142.9079680  -1.0000  -0.0000  -0.0000   -3.1649307    0.0000914   -0.0001873   0
    0  303.1729259   31.8458695  144.0374910  -1.0000  -0.0000  -0.0000   -3.1649307    0.0000914   -0.0001873   0
    0  301.8562411   30.6699233  145.5946166  -1.0000  -0.0000  -0.0000   -3.1649307    0.0000914   -0.0001873   0
    0  300.8702449   30.1842079  147.2780512  -1.0000  -0.0000  -0.0000   -3.1649307    0.0000914   -0.0001873   0
    0  299.3667415   30.4990777  148.7724249  -1.0000  -0.0000  -0.0000   -3.1649307    0.0000914   -0.0001873   0
    0  297.6934517   31.3809590  149.7884002  -1.0000  -0.0000  -0.0000   -3.1649307    0.0000914   -0.0001873   0
    0  295.9226831   32.4687724  150.7754421  -1.0000  -0.0000  -0.0000   -3.1649307    0.0000914   -0.0001873   0
    0  294.5147278   33.6183843  152.0072571  -1.0000  -0.0000  -0.0000   -3.1649307    0.0000914   -0.0001873   0
    0  293.6343891   35.2411027  153.5249638  -1.0000  -0.0000  -0.0000   -3.1649307    0.0000914   -0.0001873   0
    0  293.2724680   37.2076650  154.8402596  -1.0000  -0.0000  -0.0000   -3.1649307    0.0000914   -0.0001873   0
    0  293.2457728   39.1337805  156.0880260  -1.0000  -0.0000  -0.0000   -3.1649307    0.0000914   -0.0001873   0
    0  292.4928117   40.5705228  157.3441061  -1.0000  -0.0000  -0.0000   -3.1649307    0.0000914   -0.0001873   0
    0  291.1340584   41.6782104  157.8037174  -1.0000  -0.0000  -0.0000   -3.1649307    0.0000914   -0.0001873   0
    0  289.9075769   43.1920036  158.2389258  -1.0000  -0.0000  -0.0000   -3.1649307    0.0000914   -0.0001873   0
    0  289.0860137   44.7105803  159.4705181  -1.0000  -0.0000  -0.0000   -3.1649307    0.0000914   -0.0001873   0
    0  288.5171701   46.3130945  161.0569927  -1.0000  -0.0000  -0.0000   -3.1649307    0.0000914   -0.0001873   0
    0  287.7455310   48.5193437  161.9028078  -1.0000  -0.0000  -0.0000   -3.1649307    0.0000914   -0.0001873   0
    0  286.9654824   50.4877625  161.2301010  -1.0000  -0.0000  -0.0000   -3.1649307    0.0000914   -0.0001873   0
    0  286.5691752   52.0989270  160.2762885  -1.0000  -0.0000  -0.0000   -3.1649307    0.0000914   -0.0001873   0
    0  286.5169445   54.2405889  159.7237777  -1.0000  -0.0000  -0.0000   -3.1649307    0.0000914   -0.0001873   0
    1   77.7015783  622.7320868  177.6968466  -0.5000  -0.5000  -0.5000   -1.5826080   -1.5823710   -1.5825389   0
    1   76.1885922  625.6358512  176.8602658  -0.5000  -0.5000  -0.5000   -1.5826080   -1.5823710   -1.5825389   0
    1   74.3926126  626.0766533  176.9872841  -0.5000  -0.5000  -0.5000   -1.5826080   -1.5823710   -1.5825389   0
    1   71.9189770  626.0163307  176.0600389  -0.5000  -0.5000  -0.5000   -1.5826080   -1.5823710   -1.5825389   0
    1   69.4940241  627.0669090  173.4899147  -0.5000  -0.5000  -0.5000   -1.5826080   -1.5823710   -1.5825389   0
    1   68.9458856  627.8515523  172.3502084  -0.5000  -0.5000  -0.5000   -1.5826080   -1.5823710   -1.5825389   0
    1   69.7515816  627.3793243  173.8720869  -0.5000  -0.5000  -0.5000   -1.5826080   -1.5823710   -1.5825389   0
    1   69.7848422  626.5783066  176.2872815  -0.5000  -0.5000  -0.5000   -1.5826080   -1.5823710   -1.5825389   0
    1   68.6201740  626.6637646  178.1245600  -0.5000  -0.5000  -0.5000   -1.5826080   -1.5823710   -1.5825389   0
    1   66.9545196  627.2204821  179.9227057  -0.5000  -0.5000  -0.5000   -1.5826080   -1.5823710   -1.5825389   0
    1   65.5180698  627.7073348  182.1666111  -0.5000  -0.5000  -0.5000   -1.5826080   -1.5823710   -1.5825389   0
    1   64.2418358  628.5262111  183.7828192  -0.5000  -0.5000  -0.5000   -1.5826080   -1.5823710   -1.5825389   0
    1   62.8434763  629.9448795  184.6101760  -0.5000  -0.5000  -0.5000   -1.5826080   -1.5823710   -1.5825389   0
    1   61.4219297  631.5757626  185.3132108  -0.5000  -0.5000  -0.5000   -1.5826080   -1.5823710   -1.5825389   0
    1   60.2518191  632.9425440  186.2922825  -0.5000  -0.5000  -0.5000   -1.5826080   -1.5823710   -1.5825389   0
    1   59.0681590  634.3522754  187.3311751  -0.5000  -0.5000  -0.5000   -1.5826080   -1.5823710   -1.5825389   0
    1   57.2234876  635.6857281  187.7237389  -0.5000  -0.5000  -0.5000   -1.5826080   -1.5823710   -1.5825389   0
    1   55.2061842  636.8414978  187.5519691  -0.5000  -0.5000  -0.5000   -1.5826080   -1.5823710   -1.5825389   0
    1   53.6309334  638.3304007  187.1693941  -0.5000  -0.5000  -0.5000   -1.5826080   -1.5823710   -1.5825389   0
    1   52.5214990  640.0215271  186.0220308  -0.5000  -0.5000  -0.5000   -1.5826080   -1.5823710   -1.5825389   0
    1   52.0460065  641.7013177  184.3328516  -0.5000  -0.5000  -0.5000   -1.5826080   -1.5823710   -1.5825389   0
    1   51.9943127  642.9768600  182.9175456  -0.5000  -0.5000  -0.5000   -1.5826080   -1.5823710   -1.5825389   0
    1   51.5373607  643.5579275  181.2694425  -0.5000  -0.5000  -0.5000   -1.5826080   -1.5823710   -1.5825389   0
    1   50.5709031  643.7362422  179.1182661  -0.5000  -0.5000  -0.5000   -1.5826080   -1.5823710   -1.5825389   0
    1   49.6431287  643.3883090  177.6211369  -0.5000  -0.5000  -0.5000   -1.5826080   -1.5823710   -1.5825389   0
    1   49.8433054  642.3864716  177.9133345  -0.5000  -0.5000  -0.5000   -1.5826080   -1.5823710   -1.5825389   0
    1   51.5753029  641.4474783  178.6900574  -0.5000  -0.5000  -0.5000   -1.5826080   -1.5823710   -1.5825389   0
    1   53.2928333  641.1253499  177.9974277  -0.5000  -0.5000  -0.5000   -1.5826080   -1.5823710   -1.5825389   0
    1   54.7923942  640.8143455  176.7348689  -0.5000  -0.5000  -0.5000   -1.5826080   -1.5823710   -1.5825389   0
    1   56.6949571  640.0467357  176.0002593  -0.5000  -0.5000  -0.5000   -1.5826080   -1.5823710   -1.5825389   0
    1   58.5727149  639.1560098  175.1933081  -0.5000  -0.5000  -0.5000   -1.5826080   -1.5823710   -1.5825389   0
    1   60.0657087  638.7194441  173.3844009  -0.5000  -0.5000  -0.5000   -1.5826080   -1.5823710   -1.5825389   0
    1   61.0772306  639.1422115  171.0431578  -0.5000  -0.5000  -0.5000   -1.5826080   -1.5823710   -1.5825389   0
    1   61.9618570  639.9962629  169.1396446  -0.5000  -0.5000  -0.5000   -1.5826080   -1.5823710   -1.5825389   0
    1   62.3242894  640.6335699  167.4421596  -0.5000  -0.5000  -0.5000   -1.5826080   -1.5823710   -1.5825389   0
    1   62.0216254  641.6382777  166.1107418  -0.5000  -0.5000  -0.5000   -1.5826080   -1.5823710   -1.5825389   0
    1   61.7351525  642.6389627  164.8654190  -0.5000  -0.5000  -0.5000   -1.5826080   -1.5823710   -1.5825389   0
    1   61.5266888  642.0416300  163.9709643  -0.5000  -0.5000  -0.5000   -1.5826080   -1.5823710   -1.5825389   0
    1   62.3771001  641.0683394  164.4713038  -0.5000  -0.5000  -0.5000   -1.5826080   -1.5823710   -1.5825389   0
    1   64.7223486  641.2079166  165.1689525  -0.5000  -0.5000  -0.5000   -1.5826080   -1.5823710   -1.5825389   0
    1   67.2113522  641.4045300  164.5898429  -0.5000  -0.5000  -0.5000   -1.5826080   -1.5823710   -1.5825389   0
    1   69.4047254  641.4756745  163.2391959  -0.5000  -0.5000  -0.5000   -1.5826080   -1.5823710   -1.5825389   0
    1   71.5300082  641.8021674  162.0416474  -0.5000  -0.5000  -0.5000   -1.5826080   -1.5823710   -1.5825389   0
    1   73.0090106  641.9516937  160.5077592  -0.5000  -0.5000  -0.5000   -1.5826080   -1.5823710   -1.5825389   0
    1   73.7429118  642.1862204  158.3525370  -0.5000  -0.5000  -0.5000   -1.5826080   -1.5823710   -1.5825389   0
    1   74.4436458  643.1898629  156.6400411  -0.5000  -0.5000  -0.5000   -1.5826080   -1.5823710   -1.5825389   0
    1   75.1775069  644.6732868  155.5225171  -0.5000  -0.5000  -0.5000   -1.5826080   -1.5823710   -1.5825389   0
    1   76.1523542  645.5970335  154.5452684  -0.5000  -0.5000  -0.5000   -1.5826080   -1.5823710   -1.5825389   0
    1   77.0821605  645.8355327  152.9661798  -0.5000  -0.5000  -0.5000   -1.5826080   -1.5823710   -1.5825389   0
    1   77.3724581  646.2301049  150.4392274  -0.5000  -0.5000  -0.5000   -1.5826080   -1.5823710   -1.5825389   0
    1   77.6160380  646.9993709  148.2655420  -0.5000  -0.5000  -0.5000   -1.5826080   -1.5823710   -1.5825389   0
    1   78.7293597  647.3421570  147.0912784  -0.5000  -0.5000  -0.5000   -1.5826080   -1.5823710   -1.5825389   0
    1   80.5806911  646.7608833  146.3144292  -0.5000  -0.5000  -0.5000   -1.5826080   -1.5823710   -1.5825389   0
    1   81.9266832  645.5198765  145.6453661  -0.5000  -0.5000  -0.5000   -1.5826080   -1.5823710   -1.5825389   0
    1   83.0197277  643.7187696  145.6520580  -0.5000  -0.5000  -0.5000   -1.5826080   -1.5823710   -1.5825389   0
    1   84.4756878  641.5370653  146.4457174  -0.5000  -0.5000  -0.5000   -1.5826080   -1.5823710   -1.5825389   0
    1   85.7375256  639.7687502  147.6093910  -0.5000  -0.5000  -0.5000   -1.5826080   -1.5823710   -1.5825389   0
    1   86.7766458  638.3345583  148.8137521  -0.5000  -0.5000  -0.5000   -1.5826080   -1.5823710   -1.5825389   0
    1   88.2124387  636.8198087  149.3538589  -0.5000  -0.5000  -0.5000   -1.5826080   -1.5823710   -1.5825389   0
    1   89.9919288  636.0800646  149.4272970  -0.5000  -0.5000  -0.5000   -1.5826080   -1.5823710   -1.5825389   0
    1   91.5716336  636.4694526  149.6179793  -0.5000  -0.5000  -0.5000   -1.5826080   -1.5823710   -1.5825389   0
    1   93.3548117  637.0872601  149.7875855  -0.5000  -0.5000  -0.5000   -1.5826080   -1.5823710   -1.5825389   0
    1   94.6431273  636.4763667  149.9353926  -0.5000  -0.5000  -0.5000   -1.5826080   -1.5823710   -1.5825389   0
    1   94.0645242  634.6778618  150.2920062  -0.5000  -0.5000  -0.5000   -1.5826080   -1.5823710   -1.5825389   0
    1   92.8069378  633.2599240  151.2987379  -0.5000  -0.5000  -0.5000   -1.5826080   -1.5823710   -1.5825389   0
    1   92.3556614  632.0426491  153.1107438  -0.5000  -0.5000  -0.5000   -1.5826080   -1.5823710   -1.5825389   0
    1   92.5960187  630.4684469  155.0078905  -0.5000  -0.5000  -0.5000   -1.5826080   -1.5823710   -1.5825389   0
    1   93.4586972  629.2332651  156.5209894  -0.5000  -0.5000  -0.5000   -1.5826080   -1.5823710   -1.5825389   0
    1   94.3512400  628.4378473  158.0688579  -0.5000  -0.5000  -0.5000   -1.5826080   -1.5823710   -1.5825389   0
    1   94.3431680  627.5744975  159.8608314  -0.5000  -0.5000  -0.5000   -1.5826080   -1.5823710   -1.5825389   0
    1   94.3000250  626.3519099  161.6362859  -0.5000  -0.5000  -0.5000   -1.5826080   -1.5823710   -1.5825389   0
    1   94.7019859  624.7775328  163.2270242  -0.5000  -0.5000  -0.5000   -1.5826080   -1.5823710   -1.5825389   0
    1   94.4517360  623.2665666  164.6547191  -0.5000  -0.5000  -0.5000   -1.5826080   -1.5823710   -1.5825389   0
    1   93.8171103  622.2501003  166.3389519  -0.5000  -0.5000  -0.5000   -1.5826080   -1.5823710   -1.5825389   0
    1   92.9865279  621.7992803  168.1640327  -0.5000  -0.5000  -0.5000   -1.5826080   -1.5823710   -1.5825389   0
    1   91.3281551  621.9077789  169.6530895  -0.5000  -0.5000  -0.5000   -1.5826080   -1.5823710   -1.5825389   0
    1   89.4079383  622.2591842  170.9416355  -0.5000  -0.5000  -0.5000   -1.5826080   -1.5823710   -1.5825389   0
    1   88.1652279  622.4800684  172.1023599  -0.5000  -0.5000  -0.5000   -1.5826080   -1.5823710   -1.5825389   0
    1   87.6010415  622.0644175  173.6601750  -0.5000  -0.5000  -0.5000   -1.5826080   -1.5823710   -1.5825389   0
    1   86.7592563  620.1159687  176.0142500  -0.5000  -0.5000  -0.5000   -1.5826080   -1.5823710   -1.5825389   0
    2  385.8127683  699.3488828  282.3069974   1.0000  -0.0000  -0.0000    3.1649307   -0.0000914    0.0001873   1
    2  385.4763699  698.4868517  284.3302043   1.0000  -0.0000  -0.0000    3.1649307   -0.0000914    0.0001873   1
    2  384.8847179  697.8867895  286.3498456   1.0000  -0.0000  -0.0000    3.1649307   -0.0000914    0.0001873   1
    2  384.5832108  696.6276010  287.2125475   1.0000  -0.0000  -0.0000    3.1649307   -0.0000914    0.0001873   1
    2  384.6021083  695.0523675  287.1800672   1.0000  -0.0000  -0.0000    3.1649307   -0.0000914    0.0001873   1
    2  384.9108477  693.2572305  286.1166427   1.0000  -0.0000  -0.0000    3.1649307   -0.0000914    0.0001873   1
    2  385.3406070  691.5415089  284.5301495   1.0000  -0.0000  -0.0000    3.1649307   -0.0000914    0.0001873   1
    2  385.7324457  691.2226239  282.8375924   1.0000  -0.0000  -0.0000    3.1649307   -0.0000914    0.0001873   1
    2  385.7933410  692.6659554  280.8549582   1.0000  -0.0000  -0.0000    3.1649307   -0.0000914    0.0001873   1
    2  386.1185337  694.6135037  279.5004722   1.0000  -0.0000  -0.0000    3.1649307   -0.0000914    0.0001873   1
    2  386.6690090  696.6791133  279.6101881   1.0000  -0.0000  -0.0000    3.1649307   -0.0000914    0.0001873   1
    2  386.5428206  698.4014556  280.4211299   1.0000  -0.0000  -0.0000    3.1649307   -0.0000914    0.0001873   1
    2  385.8127683  699.3488830  282.3069975   1.0000  -0.0000  -0.0000    3.1649307   -0.0000914    0.0001873   1
    3  636.0908079  641.0872976  146.3926072  -0.0000  -0.0000  -1.0000   -0.0003833    0.0001169   -3.1649108   1
    3  635.1273913  639.7864992  146.0689751  -0.0000  -0.0000  -1.0000   -0.0003833    0.0001169   -3.1649108   1
    3  633.5660340  637.8855104  145.8059469  -0.0000  -0.0000  -1.0000   -0.0003833    0.0001169   -3.1649108   1
    3  631.7421732  636.1417437  145.3001999  -0.0000  -0.0000  -1.0000   -0.0003833    0.0001169   -3.1649108   1
    3  629.7186818  634.7204514  145.0629586  -0.0000  -0.0000  -1.0000   -0.0003833    0.0001169   -3.1649108   1
    3  627.5996849  634.0177219  145.1917943  -0.0000  -0.0000  -1.0000   -0.0003833    0.0001169   -3.1649108   1
    3  625.7449292  634.2635774  145.3030169  -0.0000  -0.0000  -1.0000   -0.0003833    0.0001169   -3.1649108   1
    3  624.0413066  635.1897672  145.6207895  -0.0000  -0.0000  -1.0000   -0.0003833    0.0001169   -3.1649108   1
    3  622.1936010  636.1370593  146.7381288  -0.0000  -0.0000  -1.0000   -0.0003833    0.0001169   -3.1649108   1
    3  621.1250309  637.5397928  147.7628846  -0.0000  -0.0000  -1.0000   -0.0003833    0.0001169   -3.1649108   1
    3  620.8604457  639.4744379  147.3731890  -0.0000  -0.0000  -1.0000   -0.0003833    0.0001169   -3.1649108   1
    3  620.1694005  641.2505931  146.3659811  -0.0000  -0.0000  -1.0000   -0.0003833    0.0001169   -3.1649108   1
    3  619.3877244  642.9728994  145.8195584  -0.0000  -0.0000  -1.0000   -0.0003833    0.0001169   -3.1649108   1
    3  619.2643412  644.9598286  145.6865771  -0.0000  -0.0000  -1.0000   -0.0003833    0.0001169   -3.1649108   1
    3  619.7423505  646.9434546  145.1904125  -0.0000  -0.0000  -1.0000   -0.0003833    0.0001169   -3.1649108   1
    3  620.6370979  648.4709916  144.4634562  -0.0000  -0.0000  -1.0000   -0.0003833    0.0001169   -3.1649108   1
    3  621.7485159  649.9139456  143.8697511  -0.0000  -0.0000  -1.0000   -0.0003833    0.0001169   -3.1649108   1
    3  623.0952771  651.2547022  143.3393036  -0.0000  -0.0000  -1.0000   -0.0003833    0.0001169   -3.1649108   1
    3  624.8507148  651.6938019  143.3382838  -0.0000  -0.0000  -1.0000   -0.0003833    0.0001169   -3.1649108   1
    3  627.0686273  651.5842926  143.5331697  -0.0000  -0.0000  -1.0000   -0.0003833    0.0001169   -3.1649108   1
    3  629.2555110  651.5678243  143.3370233  -0.0000  -0.0000  -1.0000   -0.0003833    0.0001169   -3.1649108   1
    3  631.0252749  651.4071549  142.7891740  -0.0000  -0.0000  -1.0000   -0.0003833    0.0001169   -3.1649108   1
    3  632.5433382  650.7426676  142.9848430  -0.0000  -0.0000  -1.0000   -0.0003833    0.0001169   -3.1649108   1
    3  633.9909127  649.4790685  144.1415419  -0.0000  -0.0000  -1.0000   -0.0003833    0.0001169   -3.1649108   1
    3  635.6968147  647.6647117  144.9032756  -0.0000  -0.0000  -1.0000   -0.0003833    0.0001169   -3.1649108   1
    3  636.9258651  645.5987977  145.0249900  -0.0000  -0.0000  -1.0000   -0.0003833    0.0001169   -3.1649108   1
    3  636.7750909  643.7572122  145.0954664  -0.0000  -0.0000  -1.0000   -0.0003833    0.0001169   -3.1649108   1
    3  636.3688634  642.5431079  145.5539416  -0.0000  -0.0000  -1.0000   -0.0003833    0.0001169   -3.1649108   1
    3  636.0908079  641.0872975  146.3926074  -0.0000  -0.0000  -1.0000   -0.0003833    0.0001169   -3.1649108   1
    4  680.3729000  520.7681111  160.7176445  -0.0000   1.0000  -0.0000   -0.0000980    3.1649504   -0.0000203   0
    4  681.8549734  520.5672358  161.0835019  -0.0000   1.0000  -0.0000   -0.0000980    3.1649504   -0.0000203   0
    4  683.7400082  520.7863041  161.1456013  -0.0000   1.0000  -0.0000   -0.0000980    3.1649504   -0.0000203   0
    4  685.6866039  520.7988367  161.1448135  -0.0000   1.0000  -0.0000   -0.0000980    3.1649504   -0.0000203   0
    4  687.5695863  520.9472398  160.8515935  -0.0000   1.0000  -0.0000   -0.0000980    3.1649504   -0.0000203   0
    4  689.4276492  521.7695395  159.7754488  -0.0000   1.0000  -0.0000   -0.0000980    3.1649504   -0.0000203   0
    4  691.2417481  522.8778016  158.5650657  -0.0000   1.0000  -0.0000   -0.0000980    3.1649504   -0.0000203   0
    4  692.6357279  523.9622689  157.4945584  -0.0000   1.0000  -0.0000   -0.0000980    3.1649504   -0.0000203   0
    4  693.8293025  525.1518243  156.1329571  -0.0000   1.0000  -0.0000   -0.0000980    3.1649504   -0.0000203   0
    4  695.3325551  526.2855457  155.0152628  -0.0000   1.0000  -0.0000   -0.0000980    3.1649504   -0.0000203   0
    4  696.9215691  527.0868632  154.3986009  -0.0000   1.0000  -0.0000   -0.0000980    3.1649504   -0.0000203   0
    4  698.5119231  527.8422533  153.5626948  -0.0000   1.0000  -0.0000   -0.0000980    3.1649504   -0.0000203   0
    4  700.2176837  528.4155601  152.8184700  -0.0000   1.0000  -0.0000   -0.0000980    3.1649504   -0.0000203   0
    4  702.4290871  528.7381495  152.5001090  -0.0000   1.0000  -0.0000   -0.0000980    3.1649504   -0.0000203   0
    4  704.6758313  529.6215243  151.7002188  -0.0000   1.0000  -0.0000   -0.0000980    3.1649504   -0.0000203   0
    4  706.1012913  531.0441422  150.5223021  -0.0000   1.0000  -0.0000   -0.0000980    3.1649504   -0.0000203   0
    4  707.4490747  531.8411092  149.9010051  -0.0000   1.0000  -0.0000   -0.0000980    3.1649504   -0.0000203   0
    4  709.3874907  531.7754437  149.8958064  -0.0000   1.0000  -0.0000   -0.0000980    3.1649504   -0.0000203   0
    4  711.3860782  531.9719214  149.5308454  -0.0000   1.0000  -0.0000   -0.0000980    3.1649504   -0.0000203   0
    4  712.5446335  532.7762718  147.9497362  -0.0000   1.0000  -0.0000   -0.0000980    3.1649504   -0.0000203   0
    4  712.7886066  533.4796751  146.1686136  -0.0000   1.0000  -0.0000   -0.0000980    3.1649504   -0.0000203   0
    4  712.3636400  533.9704734  144.5939684  -0.0000   1.0000  -0.0000   -0.0000980    3.1649504   -0.0000203   0
    4  711.1570019  534.4170963  142.0974814  -0.0000   1.0000  -0.0000   -0.0000980    3.1649504   -0.0000203   0
    5  399.2397887  416.4174871  254.5276413  -0.0000  -1.0000  -0.0000    0.0000980   -3.1649504    0.0000203   1
    5  398.2173765  417.4007207  254.0930822  -0.0000  -1.0000  -0.0000    0.0000980   -3.1649504    0.0000203   1
    5  396.4603291  418.5169374  254.0726393  -0.0000  -1.0000  -0.0000    0.0000980   -3.1649504    0.0000203   1
    5  394.6486463  419.2844673  253.3634975  -0.0000  -1.0000  -0.0000    0.0000980   -3.1649504    0.0000203   1
    5  392.7564177  419.4253808  251.9088599  -0.0000  -1.0000  -0.0000    0.0000980   -3.1649504    0.0000203   1
    5  391.7851423  419.1371537  250.0709054  -0.0000  -1.0000  -0.0000    0.0000980   -3.1649504    0.0000203   1
    5  392.1863152  418.7747022  248.0440352  -0.0000  -1.0000  -0.0000    0.0000980   -3.1649504    0.0000203   1
    5  393.2376161  418.8417657  246.2052478  -0.0000  -1.0000  -0.0000    0.0000980   -3.1649504    0.0000203   1
    5  394.7844788  419.0603242  244.9307494  -0.0000  -1.0000  -0.0000    0.0000980   -3.1649504    0.0000203   1
    5  396.7404427  418.3429513  244.4973993  -0.0000  -1.0000  -0.0000    0.0000980   -3.1649504    0.0000203   1
    5  398.7105893  417.2675986  245.2452316  -0.0000  -1.0000  -0.0000    0.0000980   -3.1649504    0.0000203   1
    5  400.3402760  416.5441161  247.0596095  -0.0000  -1.0000  -0.0000    0.0000980   -3.1649504    0.0000203   1
    5  401.0730817  416.0876969  249.0462488  -0.0000  -1.0000  -0.0000    0.0000980   -3.1649504    0.0000203   1
    5  400.9511062  416.2489825  250.7900410  -0.0000  -1.0000  -0.0000    0.0000980   -3.1649504    0.0000203   1
    5  400.6305185  416.8052751  252.4285807  -0.0000  -1.0000  -0.0000    0.0000980   -3.1649504    0.0000203   1
    5  400.1995830  416.8113000  253.6742877  -0.0000  -1.0000  -0.0000    0.0000980   -3.1649504    0.0000203   1
    5  399.2397885  416.4174870  254.5276415  -0.0000  -1.0000  -0.0000    0.0000980   -3.1649504    0.0000203   1
    6  675.6012222  513.5783889  157.0296111   0.0000   0.0000  -1.0000   -0.0003833    0.0001169   -3.1649108   0
    6  673.3737818  511.8274827  157.4428038   0.0000   0.0000  -1.0000   -0.0003833    0.0001169   -3.1649108   0
    6  671.7399979  510.1725225  157.0525041   0.0000   0.0000  -1.0000   -0.0003833    0.0001169   -3.1649108   0
    6  670.2915048  509.0805720  156.4120957   0.0000   0.0000  -1.0000   -0.0003833    0.0001169   -3.1649108   0
    6  668.7574367  508.9952770  155.4189563   0.0000   0.0000  -1.0000   -0.0003833    0.0001169   -3.1649108   0
    6  666.9086989  509.6195219  154.2135338   0.0000   0.0000  -1.0000   -0.0003833    0.0001169   -3.1649108   0
    6  664.9022381  510.2951191  153.5664384   0.0000   0.0000  -1.0000   -0.0003833    0.0001169   -3.1649108   0
    6  663.0442594  510.8806602  153.2888376   0.0000   0.0000  -1.0000   -0.0003833    0.0001169   -3.1649108   0
    6  661.8957336  511.6890426  152.7725309   0.0000   0.0000  -1.0000   -0.0003833    0.0001169   -3.1649108   0
    6  661.4605757  513.0822767  151.6102603   0.0000   0.0000  -1.0000   -0.0003833    0.0001169   -3.1649108   0
    6  660.4544497  514.8170619  150.4845104   0.0000   0.0000  -1.0000   -0.0003833    0.0001169   -3.1649108   0
    6  659.2301649  516.7647074  150.3296748   0.0000   0.0000  -1.0000   -0.0003833    0.0001169   -3.1649108   0
    6  658.9827695  518.9773709  150.5427435   0.0000   0.0000  -1.0000   -0.0003833    0.0001169   -3.1649108   0
    6  659.3605603  520.9854565  150.3805803   0.0000   0.0000  -1.0000   -0.0003833    0.0001169   -3.1649108   0
    6  659.4095780  522.6602124  150.1247652   0.0000   0.0000  -1.0000   -0.0003833    0.0001169   -3.1649108   0
    6  659.5259927  524.2457599  149.9318078   0.0000   0.0000  -1.0000   -0.0003833    0.0001169   -3.1649108   0
    6  660.6944147  525.8759370  149.6742196   0.0000   0.0000  -1.0000   -0.0003833    0.0001169   -3.1649108   0
    6  662.5138310  527.4165977  149.5912635   0.0000   0.0000  -1.0000   -0.0003833    0.0001169   -3.1649108   0
    6  664.4468499  528.3601884  149.8548992   0.0000   0.0000  -1.0000   -0.0003833    0.0001169   -3.1649108   0
    6  666.3301233  528.9880912  149.9651284   0.0000   0.0000  -1.0000   -0.0003833    0.0001169   -3.1649108   0
    6  668.1719322  529.7933341  149.6407244   0.0000   0.0000  -1.0000   -0.0003833    0.0001169   -3.1649108   0
    6  670.0973053  530.6362151  149.9159438   0.0000   0.0000  -1.0000   -0.0003833    0.0001169   -3.1649108   0
    6  671.7410666  531.9330333  151.2120666   0.0000   0.0000  -1.0000   -0.0003833    0.0001169   -3.1649108   0
    7  528.9353915  203.5225932  514.4466372  -0.5000  -0.5000  -0.5000   -1.5826080   -1.5823710   -1.5825389   0
    7  525.9404205  205.7374186  514.1873792  -0.5000  -0.5000  -0.5000   -1.5826080   -1.5823710   -1.5825389   0
    7  524.1484221  207.1525982  514.0667938  -0.5000  -0.5000  -0.5000   -1.5826080   -1.5823710   -1.5825389   0
    7  522.5421250  208.2468209  515.1924789  -0.5000  -0.5000  -0.5000   -1.5826080   -1.5823710   -1.5825389   0
    7  520.6442780  208.7660358  516.9828504  -0.5000  -0.5000  -0.5000   -1.5826080   -1.5823710   -1.5825389   0
    7  519.0936272  208.6938281  517.4308225  -0.5000  -0.5000  -0.5000   -1.5826080   -1.5823710   -1.5825389   0
    7  517.4890924  209.3654187  516.5902532  -0.5000  -0.5000  -0.5000   -1.5826080   -1.5823710   -1.5825389   0
    7  515.4017138  210.5798992  516.3213433  -0.5000  -0.5000  -0.5000   -1.5826080   -1.5823710   -1.5825389   0
    7  513.5899644  211.4235505  516.7011117  -0.5000  -0.5000  -0.5000   -1.5826080   -1.5823710   -1.5825389   0
    7  512.4590306  212.3059805  516.7723353  -0.5000  -0.5000  -0.5000   -1.5826080   -1.5823710   -1.5825389   0
    7  511.4587483  213.7499280  516.6665854  -0.5000  -0.5000  -0.5000   -1.5826080   -1.5823710   -1.5825389   0
    7  510.0198623  214.7173571  516.0766263  -0.5000  -0.5000  -0.5000   -1.5826080   -1.5823710   -1.5825389   0
    7  508.7996068  213.9469321  514.9386041  -0.5000  -0.5000  -0.5000   -1.5826080   -1.5823710   -1.5825389   0
    7  509.0321287  212.9408436  513.7839345  -0.5000  -0.5000  -0.5000   -1.5826080   -1.5823710   -1.5825389   0
    7  509.8596398  213.2268481  512.2129585  -0.5000  -0.5000  -0.5000   -1.5826080   -1.5823710   -1.5825389   0
    7  510.5090201  213.4010202  510.2555967  -0.5000  -0.5000  -0.5000   -1.5826080   -1.5823710   -1.5825389   0
    7  511.5901759  212.7389014  508.2457631  -0.5000  -0.5000  -0.5000   -1.5826080   -1.5823710   -1.5825389   0
    7  512.6074513  211.9110305  506.4298158  -0.5000  -0.5000  -0.5000   -1.5826080   -1.5823710   -1.5825389   0
    7  513.5934317  210.5892678  505.3886302  -0.5000  -0.5000  -0.5000   -1.5826080   -1.5823710   -1.5825389   0
    7  515.5476673  209.0719123  504.8285118  -0.5000  -0.5000  -0.5000   -1.5826080   -1.5823710   -1.5825389   0
    7  518.0728551  208.2326944  504.1352649  -0.5000  -0.5000  -0.5000   -1.5826080   -1.5823710   -1.5825389   0
    7  519.5374105  208.0239432  502.7333202  -0.5000  -0.5000  -0.5000   -1.5826080   -1.5823710   -1.5825389   0
    7  520.0164398  208.4202501  500.6390529  -0.5000  -0.5000  -0.5000   -1.5826080   -1.5823710   -1.5825389   0
    7  521.0575833  209.0516811  499.2236657  -0.5000  -0.5000  -0.5000   -1.5826080   -1.5823710   -1.5825389   0
    7  522.6817643  209.3282172  498.6050775  -0.5000  -0.5000  -0.5000   -1.5826080   -1.5823710   -1.5825389   0
    7  524.2528864  209.9638345  498.0268254  -0.5000  -0.5000  -0.5000   -1.5826080   -1.5823710   -1.5825389   0
    7  525.6405071  210.6019187  497.8885061  -0.5000  -0.5000  -0.5000   -1.5826080   -1.5823710   -1.5825389   0
    7  526.5072768  209.5634872  498.5142073  -0.5000  -0.5000  -0.5000   -1.5826080   -1.5823710   -1.5825389   0
    7  527.5890196  207.6355716  499.5526814  -0.5000  -0.5000  -0.5000   -1.5826080   -1.5823710   -1.5825389   0
    7  529.3009154  206.6856318  500.7382158  -0.5000  -0.5000  -0.5000   -1.5826080   -1.5823710   -1.5825389   0
    7  530.0409388  206.1564381  502.0678695  -0.5000  -0.5000  -0.5000   -1.5826080   -1.5823710   -1.5825389   0
    7  529.7027062  205.3188864  503.5224048  -0.5000  -0.5000  -0.5000   -1.5826080   -1.5823710   -1.5825389   0
    7  529.7911223  205.3845866  505.4462023  -0.5000  -0.5000  -0.5000   -1.5826080   -1.5823710   -1.5825389   0