ITEM: TIMESTEP
0
ITEM: NUMBER OF ATOMS
8099
ITEM: BOX BOUNDS pp pp pp 
0.0 695.663394
0.0 696.818560
0.0 697.989405
ITEM: ATOMS id x y z tbx tby tbz sbx sby sbz loop
    0  491.8864552  195.2902497  446.3356250  -0.5000  -0.5000  -0.5000   -1.5808059   -1.5802162   -1.5823279   1
    0  490.1800453  193.6916888  447.2467901  -0.5000  -0.5000  -0.5000   -1.5808059   -1.5802162   -1.5823279   1
    0  488.6680007  192.1804590  447.9306657  -0.5000  -0.5000  -0.5000   -1.5808059   -1.5802162   -1.5823279   1
    0  488.1277713  191.7553128  449.7175941  -0.5000  -0.5000  -0.5000   -1.5808059   -1.5802162   -1.5823279   1
    0  487.9840740  191.7956730  452.1102402  -0.5000  -0.5000  -0.5000   -1.5808059   -1.5802162   -1.5823279   1
    0  487.6983342  191.3532229  454.2326194  -0.5000  -0.5000  -0.5000   -1.5808059   -1.5802162   -1.5823279   1
    0  486.9411305  190.4917330  455.9585875  -0.5000  -0.5000  -0.5000   -1.5808059   -1.5802162   -1.5823279   1
    0  486.2085834  189.5643215  457.5049925  -0.5000  -0.5000  -0.5000   -1.5808059   -1.5802162   -1.5823279   1
    0  486.7610007  188.5248735  458.9567382  -0.5000  -0.5000  -0.5000   -1.5808059   -1.5802162   -1.5823279   1
    0  488.0214251  187.0749311  460.1853831  -0.5000  -0.5000  -0.5000   -1.5808059   -1.5802162   -1.5823279   1
    0  489.1443374  185.5538687  460.9104685  -0.5000  -0.5000  -0.5000   -1.5808059   -1.5802162   -1.5823279   1
    0  491.1370633  184.8557195  460.8840155  -0.5000  -0.5000  -0.5000   -1.5808059   -1.5802162   -1.5823279   1
    0  493.8798015  184.7523791  460.0164836  -0.5000  -0.5000  -0.5000   -1.5808059   -1.5802162   -1.5823279   1
    0  495.6293261  183.9926098  458.1800871  -0.5000  -0.5000  -0.5000   -1.5808059   -1.5802162   -1.5823279   1
    0  495.9969155  183.2427055  456.7725522  -0.5000  -0.5000  -0.5000   -1.5808059   -1.5802162   -1.5823279   1
    0  495.8036675  184.3705869  456.4481418  -0.5000  -0.5000  -0.5000   -1.5808059   -1.5802162   -1.5823279   1
    0  495.6800501  186.4494600  455.4620565  -0.5000  -0.5000  -0.5000   -1.5808059   -1.5802162   -1.5823279   1
    0  495.6701399  188.1482806  453.6429729  -0.5000  -0.5000  -0.5000   -1.5808059   -1.5802162   -1.5823279   1
    0  495.1929145  189.8040043  452.0335661  -0.5000  -0.5000  -0.5000   -1.5808059   -1.5802162   -1.5823279   1
    0  493.9025968  191.4468211  450.9952637  -0.5000  -0.5000  -0.5000   -1.5808059   -1.5802162   -1.5823279   1
    0  491.9912266  192.5459004  450.4074501  -0.5000  -0.5000  -0.5000   -1.5808059   -1.5802162   -1.5823279   1
    0  490.4728986  192.7739612  449.2928306  -0.5000  -0.5000  -0.5000   -1.5808059   -1.5802162   -1.5823279   1
    0  490.6637585  193.4821702  447.7048405  -0.5000  -0.5000  -0.5000   -1.5808059   -1.5802162   -1.5823279   1
    0  491.8864550  195.2902499  446.3356248  -0.5000  -0.5000  -0.5000   -1.5808059   -1.5802162   -1.5823279   1
    1   86.1563722  175.0729733  679.9545606  -0.0000   1.0000  -0.0000   -0.0010155    3.1642028    0.0021310   1
    1   86.0014249  176.6125978  681.1411030  -0.0000   1.0000  -0.0000   -0.0010155    3.1642028    0.0021310   1
    1   86.3925887  178.1629629  682.7387064  -0.0000   1.0000  -0.0000   -0.0010155    3.1642028    0.0021310   1
    1   88.0480676  178.6339417  684.3302265  -0.0000   1.0000  -0.0000   -0.0010155    3.1642028    0.0021310   1
    1   90.0563416  178.3064550  685.7332789  -0.0000   1.0000  -0.0000   -0.0010155    3.1642028    0.0021310   1
    1   91.8937492  178.4173288  685.9332126  -0.0000   1.0000  -0.0000   -0.0010155    3.1642028    0.0021310   1
    1   93.2241948  178.7701231  684.8244448  -0.0000   1.0000  -0.0000   -0.0010155    3.1642028    0.0021310   1
    1   93.9445285  177.9559769  683.0960326  -0.0000   1.0000  -0.0000   -0.0010155    3.1642028    0.0021310   1
    1   93.8653695  176.4633619  681.2506752  -0.0000   1.0000  -0.0000   -0.0010155    3.1642028    0.0021310   1
    1   92.4536955  175.6188507  679.3899991  -0.0000   1.0000  -0.0000   -0.0010155    3.1642028    0.0021310   1
    1   90.6094338  175.4006978  678.0706562  -0.0000   1.0000  -0.0000   -0.0010155    3.1642028    0.0021310   1
    1   88.9987690  175.8576222  677.6387791  -0.0000   1.0000  -0.0000   -0.0010155    3.1642028    0.0021310   1
    1   87.4693339  176.0652559  677.8539401  -0.0000   1.0000  -0.0000   -0.0010155    3.1642028    0.0021310   1
    1   86.5956170  175.4916620  678.5067823  -0.0000   1.0000  -0.0000   -0.0010155    3.1642028    0.0021310   1
    1   86.1563722  175.0729735  679.9545605  -0.0000   1.0000  -0.0000   -0.0010155    3.1642028    0.0021310   1
    2  376.9131111  462.6820555  663.4355000  -1.0000   0.0000   0.0000   -3.1641700   -0.0001015    0.0016433   0
    2  379.8019116  463.5935753  662.1770929  -1.0000   0.0000   0.0000   -3.1641700   -0.0001015    0.0016433   0
    2  381.3002883  465.0232057  660.6947086  -1.0000   0.0000   0.0000   -3.1641700   -0.0001015    0.0016433   0
    2  382.1796243  466.4754596  659.2257544  -1.0000   0.0000   0.0000   -3.1641700   -0.0001015    0.0016433   0
    2  383.2129095  467.6071716  657.9488684  -1.0000   0.0000   0.0000   -3.1641700   -0.0001015    0.0016433   0
    2  384.1545023  468.7767469  656.7181492  -1.0000   0.0000   0.0000   -3.1641700   -0.0001015    0.0016433   0
    2  384.7962289  470.3137297  655.5603281  -1.0000   0.0000   0.0000   -3.1641700   -0.0001015    0.0016433   0
    2  385.4677985  472.3094147  654.8855576  -1.0000   0.0000   0.0000   -3.1641700   -0.0001015    0.0016433   0
    2  386.7624828  474.5386540  655.0443911  -1.0000   0.0000   0.0000   -3.1641700   -0.0001015    0.0016433   0
    2  388.7271641  476.0662724  655.6045838  -1.0000   0.0000   0.0000   -3.1641700   -0.0001015    0.0016433   0
    2  390.2633013  477.1672991  656.1691874  -1.0000   0.0000   0.0000   -3.1641700   -0.0001015    0.0016433   0
    2  391.1503541  478.7457219  656.7458456  -1.0000   0.0000   0.0000   -3.1641700   -0.0001015    0.0016433   0
    2  392.3828990  480.2336377  656.7418953  -1.0000   0.0000   0.0000   -3.1641700   -0.0001015    0.0016433   0
    2  393.8227286  481.5790643  656.3172166  -1.0000   0.0000   0.0000   -3.1641700   -0.0001015    0.0016433   0
    2  394.9798073  483.1127862  656.6523630  -1.0000   0.0000   0.0000   -3.1641700   -0.0001015    0.0016433   0
    2  396.1245557  484.6459360  657.3697476  -1.0000   0.0000   0.0000   -3.1641700   -0.0001015    0.0016433   0
    2  397.5392975  485.8921586  657.1175499  -1.0000   0.0000   0.0000   -3.1641700   -0.0001015    0.0016433   0
    2  399.5056593  487.0552289  656.0675225  -1.0000   0.0000   0.0000   -3.1641700   -0.0001015    0.0016433   0
    2  401.3795501  488.8557172  654.8896366  -1.0000   0.0000   0.0000   -3.1641700   -0.0001015    0.0016433   0
    2  402.0478920  491.1638762  654.2440470  -1.0000   0.0000   0.0000   -3.1641700   -0.0001015    0.0016433   0
    2  402.4124299  493.1397695  654.6865403  -1.0000   0.0000   0.0000   -3.1641700   -0.0001015    0.0016433   0
    2  403.7508280  494.4092273  655.0553841  -1.0000   0.0000   0.0000   -3.1641700   -0.0001015    0.0016433   0
    2  405.3225624  495.4942226  654.3009437  -1.0000   0.0000   0.0000   -3.1641700   -0.0001015    0.0016433   0
    2  406.5213249  496.9561530  653.1575762  -1.0000   0.0000   0.0000   -3.1641700   -0.0001015    0.0016433   0
    2  407.8868755  498.6501462  652.5962198  -1.0000   0.0000   0.0000   -3.1641700   -0.0001015    0.0016433   0
    2  409.5071268  500.5533426  652.7558359  -1.0000   0.0000   0.0000   -3.1641700   -0.0001015    0.0016433   0
    2  411.0466104  502.3939712  652.6827583  -1.0000   0.0000   0.0000   -3.1641700   -0.0001015    0.0016433   0
    2  412.6561250  503.8247106  652.0749891  -1.0000   0.0000   0.0000   -3.1641700   -0.0001015    0.0016433   0
    2  414.9412501  505.4719167  651.9828334  -1.0000   0.0000   0.0000   -3.1641700   -0.0001015    0.0016433   0
    3  563.0092080  561.2560628  667.4335137   0.5000  -0.5000   0.5000    1.5818214   -1.5839866    1.5801969   1
    3  563.5956581  561.3205964  665.1666517   0.5000  -0.5000   0.5000    1.5818214   -1.5839866    1.5801969   1
    3  564.6692537  561.2165513  662.8297404   0.5000  -0.5000   0.5000    1.5818214   -1.5839866    1.5801969   1
    3  566.5473738  560.5715329  660.5040026   0.5000  -0.5000   0.5000    1.5818214   -1.5839866    1.5801969   1
    3  568.2266762  559.9488683  658.1098520   0.5000  -0.5000   0.5000    1.5818214   -1.5839866    1.5801969   1
    3  569.0127367  559.4818355  656.5318730   0.5000  -0.5000   0.5000    1.5818214   -1.5839866    1.5801969   1
    3  568.3889770  558.3405029  655.9211666   0.5000  -0.5000   0.5000    1.5818214   -1.5839866    1.5801969   1
    3  567.0632490  556.8283372  655.1522900   0.5000  -0.5000   0.5000    1.5818214   -1.5839866    1.5801969   1
    3  566.2293723  555.4044878  654.1716804   0.5000  -0.5000   0.5000    1.5818214   -1.5839866    1.5801969   1
    3  565.6006867  554.4978666  653.6172398   0.5000  -0.5000   0.5000    1.5818214   -1.5839866    1.5801969   1
    3  564.8621026  553.7017345  654.4493939   0.5000  -0.5000   0.5000    1.5818214   -1.5839866    1.5801969   1
    3  564.0899859  552.7825711  656.3313032   0.5000  -0.5000   0.5000    1.5818214   -1.5839866    1.5801969   1
    3  562.5290107  552.1192016  658.1087685   0.5000  -0.5000   0.5000    1.5818214   -1.5839866    1.5801969   1
    3  560.7959921  551.7258813  659.7014144   0.5000  -0.5000   0.5000    1.5818214   -1.5839866    1.5801969   1
    3  560.5856470  552.4361524  660.8524010   0.5000  -0.5000   0.5000    1.5818214   -1.5839866    1.5801969   1
    3  561.7406430  553.7219559  662.0389161   0.5000  -0.5000   0.5000    1.5818214   -1.5839866    1.5801969   1
    3  563.1238992  554.5067544  663.3333192   0.5000  -0.5000   0.5000    1.5818214   -1.5839866    1.5801969   1
    3  564.4690830  555.9958531  663.6643965   0.5000  -0.5000   0.5000    1.5818214   -1.5839866    1.5801969   1
    3  565.8282191  558.4478366  663.0015026   0.5000  -0.5000   0.5000    1.5818214   -1.5839866    1.5801969   1
    3  566.0269846  560.6547963  662.8486548   0.5000  -0.5000   0.5000    1.5818214   -1.5839866    1.5801969   1
    3  564.1857019  561.8804302  664.6065075   0.5000  -0.5000   0.5000    1.5818214   -1.5839866    1.5801969   1
    3  562.7501982  561.9200858  666.6366522   0.5000  -0.5000   0.5000    1.5818214   -1.5839866    1.5801969   1
    3  563.0092080  561.2560628  667.4335136   0.5000  -0.5000   0.5000    1.5818214   -1.5839866    1.5801969   1
    4  372.1691429  430.9108571   -0.6969453   0.5000   0.5000   0.5000    1.5808059    1.5802162    1.5823279   0
    4  369.1960700  429.9120852    0.5748259   0.5000   0.5000   0.5000    1.5808059    1.5802162    1.5823279   0
    4  367.5448922  428.9708781    2.4667756   0.5000   0.5000   0.5000    1.5808059    1.5802162    1.5823279   0
    4  366.8131365  428.0238392    4.5428120   0.5000   0.5000   0.5000    1.5808059    1.5802162    1.5823279   0
    4  366.9027854  427.1058525    6.1436538   0.5000   0.5000   0.5000    1.5808059    1.5802162    1.5823279   0
    4  367.8628768  425.9279732    7.1811358   0.5000   0.5000   0.5000    1.5808059    1.5802162    1.5823279   0
    4  368.9323320  424.7429889    8.3482406   0.5000   0.5000   0.5000    1.5808059    1.5802162    1.5823279   0
    4  369.1353969  423.8171270    9.9765724   0.5000   0.5000   0.5000    1.5808059    1.5802162    1.5823279   0
    4  368.5939041  423.2486809   12.1088717   0.5000   0.5000   0.5000    1.5808059    1.5802162    1.5823279   0
    4  368.1571835  423.1832726   14.8973005   0.5000   0.5000   0.5000    1.5808059    1.5802162    1.5823279   0
    4  367.8516555  423.1632561   17.7345751   0.5000   0.5000   0.5000    1.5808059    1.5802162    1.5823279   0
    4  367.3653129  422.6556993   20.2925465   0.5000   0.5000   0.5000    1.5808059    1.5802162    1.5823279   0
    4  366.6162829  422.0136475   22.4755304   0.5000   0.5000   0.5000    1.5808059    1.5802162    1.5823279   0
    4  365.4238673  422.0691243   24.0345516   0.5000   0.5000   0.5000    1.5808059    1.5802162    1.5823279   0
    4  364.2922876  423.1783996   25.0245239   0.5000   0.5000   0.5000    1.5808059    1.5802162    1.5823279   0
    4  363.6795097  424.7394924   25.6623244   0.5000   0.5000   0.5000    1.5808059    1.5802162    1.5823279   0
    4  363.5259669  425.6761290   26.9221949   0.5000   0.5000   0.5000    1.5808059    1.5802162    1.5823279   0
    4  363.1938887  426.3516057   28.5619308   0.5000   0.5000   0.5000    1.5808059    1.5802162    1.5823279   0
    4  361.6789591  427.4687845   29.5870072   0.5000   0.5000   0.5000    1.5808059    1.5802162    1.5823279   0
    5  586.9831220    8.8160784  586.3789902   0.5000   0.5000   0.5000    1.5808059    1.5802162    1.5823279   1
    5  585.8811051    8.3465927  586.1750802   0.5000   0.5000   0.5000    1.5808059    1.5802162    1.5823279   1
    5  584.4567492    7.7455650  586.8351505   0.5000   0.5000   0.5000    1.5808059    1.5802162    1.5823279   1
    5  582.7776651    8.2517810  587.6443241   0.5000   0.5000   0.5000    1.5808059    1.5802162    1.5823279   1
    5  580.5421974    9.0431489  588.1801754   0.5000   0.5000   0.5000    1.5808059    1.5802162    1.5823279   1
    5  578.5600731   10.3864559  587.8532396   0.5000   0.5000   0.5000    1.5808059    1.5802162    1.5823279   1
    5  577.8188545   11.9724937  585.9895664   0.5000   0.5000   0.5000    1.5808059    1.5802162    1.5823279   1
    5  578.4493414   12.4287013  583.6918175   0.5000   0.5000   0.5000    1.5808059    1.5802162    1.5823279   1
    5  580.0147799   12.0131207  582.4828682   0.5000   0.5000   0.5000    1.5808059    1.5802162    1.5823279   1
    5  581.2829713   11.0915449  581.2615386   0.5000   0.5000   0.5000    1.5808059    1.5802162    1.5823279   1
    5  581.9416130   10.1051747  579.8305146   0.5000   0.5000   0.5000    1.5808059    1.5802162    1.5823279   1
    5  582.8270913    9.4494082  579.9826716   0.5000   0.5000   0.5000    1.5808059    1.5802162    1.5823279   1
    5  584.1003809    8.8199950  581.6148169   0.5000   0.5000   0.5000    1.5808059    1.5802162    1.5823279   1
    5  585.4219922    8.5092667  583.6475356   0.5000   0.5000   0.5000    1.5808059    1.5802162    1.5823279   1
    5  586.9831221    8.8160783  586.3789901   0.5000   0.5000   0.5000    1.5808059    1.5802162    1.5823279   1
    6  140.2129720  284.3438283  539.7824282   0.5000   0.5000   0.5000    1.5808059    1.5802162    1.5823279   0
    6  139.4338598  284.3824676  543.8210022   0.5000   0.5000   0.5000    1.5808059    1.5802162    1.5823279   0
    6  137.9108492  284.7891373  545.5541796   0.5000   0.5000   0.5000    1.5808059    1.5802162    1.5823279   0
    6  136.3427795  285.7264025  546.3716242   0.5000   0.5000   0.5000    1.5808059    1.5802162    1.5823279   0
    6  135.2537882  286.8709666  547.6098424   0.5000   0.5000   0.5000    1.5808059    1.5802162    1.5823279   0
    6  133.6535096  287.7954306  548.5453087   0.5000   0.5000   0.5000    1.5808059    1.5802162    1.5823279   0
    6  131.3624183  288.6656402  548.7897144   0.5000   0.5000   0.5000    1.5808059    1.5802162    1.5823279   0
    6  129.7630881  290.1003531  548.4452925   0.5000   0.5000   0.5000    1.5808059    1.5802162    1.5823279   0
    6  128.8550437  291.7231248  547.6925114   0.5000   0.5000   0.5000    1.5808059    1.5802162    1.5823279   0
    6  128.0124984  293.4568507  546.7596231   0.5000   0.5000   0.5000    1.5808059    1.5802162    1.5823279   0
    6  126.6157274  294.9714148  545.8313384   0.5000   0.5000   0.5000    1.5808059    1.5802162    1.5823279   0
    6  125.3893706  295.9143776  545.2081074   0.5000   0.5000   0.5000    1.5808059    1.5802162    1.5823279   0
    6  125.6581173  297.2504821  544.0978794   0.5000   0.5000   0.5000    1.5808059    1.5802162    1.5823279   0
    6  126.4788337  298.6423409  542.0383696   0.5000   0.5000   0.5000    1.5808059    1.5802162    1.5823279   0
    6  127.6021175  299.1958554  540.1342078   0.5000   0.5000   0.5000    1.5808059    1.5802162    1.5823279   0
    6  129.1428595  299.3699103  538.5490969   0.5000   0.5000   0.5000    1.5808059    1.5802162    1.5823279   0
    6  130.3366180  299.1288238  536.9404262   0.5000   0.5000   0.5000    1.5808059    1.5802162    1.5823279   0
    6  131.4947347  298.0700844  536.1686885   0.5000   0.5000   0.5000    1.5808059    1.5802162    1.5823279   0
    6  132.5002803  296.1924219  536.1783375   0.5000   0.5000   0.5000    1.5808059    1.5802162    1.5823279   0
    6  132.7144691  294.0679617  536.9090469   0.5000   0.5000   0.5000    1.5808059    1.5802162    1.5823279   0
    6  132.6923848  292.4926135  538.4990477   0.5000   0.5000   0.5000    1.5808059    1.5802162    1.5823279   0
    6  133.0310360  290.8574565  539.8414380   0.5000   0.5000   0.5000    1.5808059    1.5802162    1.5823279   0
    6  134.1240882  289.2472223  540.4219055   0.5000   0.5000   0.5000    1.5808059    1.5802162    1.5823279   0
    6  135.8511117  288.1940787  539.8340334   0.5000   0.5000   0.5000    1.5808059    1.5802162    1.5823279   0
    6  137.5049732  287.4892348  538.6384578   0.5000   0.5000   0.5000    1.5808059    1.5802162    1.5823279   0
    6  139.0110188  286.5407752  538.5437791   0.5000   0.5000   0.5000    1.5808059    1.5802162    1.5823279   0
    6  140.2129720  284.3438283  539.7824282   0.5000   0.5000   0.5000    1.5808059    1.5802162    1.5823279   0
    7  225.9007500    5.4478125  369.5869167  -0.5000   0.5000  -0.5000   -1.5818214    1.5839866   -1.5801969   0
    7  223.3462752    7.3135314  369.3188246  -0.5000   0.5000  -0.5000   -1.5818214    1.5839866   -1.5801969   0
    7  221.0083926    8.8997364  369.0708809  -0.5000   0.5000  -0.5000   -1.5818214    1.5839866   -1.5801969   0
    7  218.6985779   10.5920096  368.5500210  -0.5000   0.5000  -0.5000   -1.5818214    1.5839866   -1.5801969   0
    7  217.4544416   12.3982372  368.0365816  -0.5000   0.5000  -0.5000   -1.5818214    1.5839866   -1.5801969   0
    7  217.5640810   14.5503673  368.0286002  -0.5000   0.5000  -0.5000   -1.5818214    1.5839866   -1.5801969   0
    7  217.3494698   17.1750277  367.9850323  -0.5000   0.5000  -0.5000   -1.5818214    1.5839866   -1.5801969   0
    7  216.1075055   19.3590093  368.1768674  -0.5000   0.5000  -0.5000   -1.5818214    1.5839866   -1.5801969   0
    7  214.6143334   20.8455783  368.4097742  -0.5000   0.5000  -0.5000   -1.5818214    1.5839866   -1.5801969   0
    7  213.2428735   22.1184753  367.9398928  -0.5000   0.5000  -0.5000   -1.5818214    1.5839866   -1.5801969   0
    7  211.8400247   23.6267277  367.6296347  -0.5000   0.5000  -0.5000   -1.5818214    1.5839866   -1.5801969   0
    7  210.4132741   25.2426721  367.8143126  -0.5000   0.5000  -0.5000   -1.5818214    1.5839866   -1.5801969   0
    7  208.7803763   26.0661993  367.7473870  -0.5000   0.5000  -0.5000   -1.5818214    1.5839866   -1.5801969   0
    7  206.6567777   26.3345111  367.4900556  -0.5000   0.5000  -0.5000   -1.5818214    1.5839866   -1.5801969   0
    8  229.9891046  309.0114446   28.3896601  -0.5000   0.5000  -0.5000   -1.5818214    1.5839866   -1.5801969   1
    8  230.8358176  307.9006649   27.7004043  -0.5000   0.5000  -0.5000   -1.5818214    1.5839866   -1.5801969   1
    8  232.0258467  306.5462424   26.3680688  -0.5000   0.5000  -0.5000   -1.5818214    1.5839866   -1.5801969   1
    8  233.3596472  305.8950638   24.5149915  -0.5000   0.5000  -0.5000   -1.5818214    1.5839866   -1.5801969   1
    8  234.8520287  305.8601984   22.6368450  -0.5000   0.5000  -0.5000   -1.5818214    1.5839866   -1.5801969   1
    8  236.6052907  306.5104699   21.6090319  -0.5000   0.5000  -0.5000   -1.5818214    1.5839866   -1.5801969   1
    8  238.5200127  307.9746958   21.5032561  -0.5000   0.5000  -0.5000   -1.5818214    1.5839866   -1.5801969   1
    8  239.7277954  309.9004852   21.9296515  -0.5000   0.5000  -0.5000   -1.5818214    1.5839866   -1.5801969   1
    8  239.5585533  311.3913519   22.9320709  -0.5000   0.5000  -0.5000   -1.5818214    1.5839866   -1.5801969   1
    8  238.6895264  312.3603346   24.6310421  -0.5000   0.5000  -0.5000   -1.5818214    1.5839866   -1.5801969   1
    8  237.2075095  312.9033066   26.6531813  -0.5000   0.5000  -0.5000   -1.5818214    1.5839866   -1.5801969   1
    8  234.9339950  312.8168528   28.2509582  -0.5000   0.5000  -0.5000   -1.5818214    1.5839866   -1.5801969   1
    8  232.8731464  311.9678451   29.1846896  -0.5000   0.5000  -0.5000   -1.5818214    1.5839866   -1.5801969   1
    8  231.4772776  310.7990750   29.2685799  -0.5000   0.5000  -0.5000   -1.5818214    1.5839866   -1.5801969   1
    8  229.9891046  309.0114448   28.3896601  -0.5000   0.5000  -0.5000   -1.5818214    1.5839866   -1.5801969   1
    9  167.1940715  337.2139286  295.5404287  -0.5000  -0.5000   0.5000   -1.5823486   -1.5840881    1.5818402   0
    9  167.6654932  337.2969621  296.3495520  -0.5000  -0.5000   0.5000   -1.5823486   -1.5840881    1.5818402   0
    9  169.5976661  337.4663503  297.2143270  -0.5000  -0.5000   0.5000   -1.5823486   -1.5840881    1.5818402   0
    9  171.8704904  337.0062356  298.1081141  -0.5000  -0.5000   0.5000   -1.5823486   -1.5840881    1.5818402   0
    9  173.9536082  336.1801005  298.7371370  -0.5000  -0.5000   0.5000   -1.5823486   -1.5840881    1.5818402   0
    9  175.7860505  334.7644242  298.8032004  -0.5000  -0.5000   0.5000   -1.5823486   -1.5840881    1.5818402   0
    9  177.0743249  332.7649346  298.3908368  -0.5000  -0.5000   0.5000   -1.5823486   -1.5840881    1.5818402   0
    9  178.5413884  330.9837168  297.9955919  -0.5000  -0.5000   0.5000   -1.5823486   -1.5840881    1.5818402   0
    9  180.3524592  329.8825121  297.3624102  -0.5000  -0.5000   0.5000   -1.5823486   -1.5840881    1.5818402   0
    9  181.7658653  329.0644714  295.8457754  -0.5000  -0.5000   0.5000   -1.5823486   -1.5840881    1.5818402   0
    9  182.7389265  327.7092055  294.2491346  -0.5000  -0.5000   0.5000   -1.5823486   -1.5840881    1.5818402   0
    9  183.9041932  326.2340422  293.5650405  -0.5000  -0.5000   0.5000   -1.5823486   -1.5840881    1.5818402   0
    9  185.4479435  325.1639864  294.1139967  -0.5000  -0.5000   0.5000   -1.5823486   -1.5840881    1.5818402   0
    9  186.9509925  324.8127678  295.4859990  -0.5000  -0.5000   0.5000   -1.5823486   -1.5840881    1.5818402   0
    9  188.0906762  325.7820632  296.9742494  -0.5000  -0.5000   0.5000   -1.5823486   -1.5840881    1.5818402   0
    9  189.0362267  327.2579424  298.4707069  -0.5000  -0.5000   0.5000   -1.5823486   -1.5840881    1.5818402   0
    9  190.5066058  328.1756416  299.9782015  -0.5000  -0.5000   0.5000   -1.5823486   -1.5840881    1.5818402   0
    9  192.2907400  329.0136106  301.0586309  -0.5000  -0.5000   0.5000   -1.5823486   -1.5840881    1.5818402   0
    9  193.4681403  330.2864752  301.9258346  -0.5000  -0.5000   0.5000   -1.5823486   -1.5840881    1.5818402   0
    9  193.9820809  331.2300642  303.6017119  -0.5000  -0.5000   0.5000   -1.5823486   -1.5840881    1.5818402   0
    9  194.4605097  330.5409506  305.4409440  -0.5000  -0.5000   0.5000   -1.5823486   -1.5840881    1.5818402   0
    9  195.4820455  328.8583922  306.6691339  -0.5000  -0.5000   0.5000   -1.5823486   -1.5840881    1.5818402   0
    9  196.8199717  327.5027803  307.5086336  -0.5000  -0.5000   0.5000   -1.5823486   -1.5840881    1.5818402   0
    9  198.0124263  326.0014453  307.4738668  -0.5000  -0.5000   0.5000   -1.5823486   -1.5840881    1.5818402   0
    9  198.8416373  324.0836334  306.7549576  -0.5000  -0.5000   0.5000   -1.5823486   -1.5840881    1.5818402   0
    9  199.0188242  322.2812340  305.6294016  -0.5000  -0.5000   0.5000   -1.5823486   -1.5840881    1.5818402   0
    9  198.8739263  320.7122136  303.9902464  -0.5000  -0.5000   0.5000   -1.5823486   -1.5840881    1.5818402   0
    9  198.8186319  319.0763450  302.0759093  -0.5000  -0.5000   0.5000   -1.5823486   -1.5840881    1.5818402   0
    9  199.0860562  317.5598546  300.2407251  -0.5000  -0.5000   0.5000   -1.5823486   -1.5840881    1.5818402   0
    9  200.1033642  316.3242300  298.8322223  -0.5000  -0.5000   0.5000   -1.5823486   -1.5840881    1.5818402   0
    9  201.1523653  315.0356512  297.5253966  -0.5000  -0.5000   0.5000   -1.5823486   -1.5840881    1.5818402   0
    9  201.3054313  313.9013826  295.5869096  -0.5000  -0.5000   0.5000   -1.5823486   -1.5840881    1.5818402   0
    9  201.2410252  313.0545862  293.6378231  -0.5000  -0.5000   0.5000   -1.5823486   -1.5840881    1.5818402   0
    9  202.1798101  312.0836776  292.9384714  -0.5000  -0.5000   0.5000   -1.5823486   -1.5840881    1.5818402   0
    9  203.9459374  310.8034877  293.1362431  -0.5000  -0.5000   0.5000   -1.5823486   -1.5840881    1.5818402   0
    9  205.7874668  309.9812849  293.5341129  -0.5000  -0.5000   0.5000   -1.5823486   -1.5840881    1.5818402   0
    9  207.5395860  310.5831020  294.0748681  -0.5000  -0.5000   0.5000   -1.5823486   -1.5840881    1.5818402   0
    9  209.1842547  311.2911334  294.8259608  -0.5000  -0.5000   0.5000   -1.5823486   -1.5840881    1.5818402   0
    9  211.3528046  310.9713866  295.2847326  -0.5000  -0.5000   0.5000   -1.5823486   -1.5840881    1.5818402   0
    9  214.3080626  310.6898389  295.3134388  -0.5000  -0.5000   0.5000   -1.5823486   -1.5840881    1.5818402   0
    9  216.8167343  310.6577755  295.7398141  -0.5000  -0.5000   0.5000   -1.5823486   -1.5840881    1.5818402   0
    9  218.4095516  310.3842452  296.5305502  -0.5000  -0.5000   0.5000   -1.5823486   -1.5840881    1.5818402   0
    9  219.9417754  309.6801501  296.9056663  -0.5000  -0.5000   0.5000   -1.5823486   -1.5840881    1.5818402   0
    9  221.4358345  308.7518315  297.2933847  -0.5000  -0.5000   0.5000   -1.5823486   -1.5840881    1.5818402   0
    9  222.3061056  308.3869068  298.5085443  -0.5000  -0.5000   0.5000   -1.5823486   -1.5840881    1.5818402   0
    9  222.2454906  309.1115696  299.7390862  -0.5000  -0.5000   0.5000   -1.5823486   -1.5840881    1.5818402   0
    9  221.8868885  311.0486116  299.8266044  -0.5000  -0.5000   0.5000   -1.5823486   -1.5840881    1.5818402   0
    9  222.4337557  313.1442972  299.6129514  -0.5000  -0.5000   0.5000   -1.5823486   -1.5840881    1.5818402   0
    9  224.1121653  314.2924689  300.2896888  -0.5000  -0.5000   0.5000   -1.5823486   -1.5840881    1.5818402   0
    9  226.2071002  314.9862592  301.3859398  -0.5000  -0.5000   0.5000   -1.5823486   -1.5840881    1.5818402   0
    9  228.3251171  315.1940649  302.3185253  -0.5000  -0.5000   0.5000   -1.5823486   -1.5840881    1.5818402   0
    9  230.3639206  314.3309827  303.3190783  -0.5000  -0.5000   0.5000   -1.5823486   -1.5840881    1.5818402   0
    9  231.9808181  313.3099737  304.4604527  -0.5000  -0.5000   0.5000   -1.5823486   -1.5840881    1.5818402   0
    9  233.8979722  313.0143312  305.3565878  -0.5000  -0.5000   0.5000   -1.5823486   -1.5840881    1.5818402   0
    9  236.4595327  313.0139521  305.8742853  -0.5000  -0.5000   0.5000   -1.5823486   -1.5840881    1.5818402   0
    9  238.7126041  313.5476409  306.3323348  -0.5000  -0.5000   0.5000   -1.5823486   -1.5840881    1.5818402   0
    9  240.4841865  315.2061378  306.9298370  -0.5000  -0.5000   0.5000   -1.5823486   -1.5840881    1.5818402   0
    9  241.6494698  317.5127361  307.6653406  -0.5000  -0.5000   0.5000   -1.5823486   -1.5840881    1.5818402   0
    9  242.2719396  319.3109091  308.9139840  -0.5000  -0.5000   0.5000   -1.5823486   -1.5840881    1.5818402   0
    9  243.2044364  319.6995960  310.6425255  -0.5000  -0.5000   0.5000   -1.5823486   -1.5840881    1.5818402   0
    9  244.4162362  319.7234488  312.2096001  -0.5000  -0.5000   0.5000   -1.5823486   -1.5840881    1.5818402   0
    9  245.5602354  320.9707402  312.7338038  -0.5000  -0.5000   0.5000   -1.5823486   -1.5840881    1.5818402   0
    9  245.8130017  322.4170849  311.9591285  -0.5000  -0.5000   0.5000   -1.5823486   -1.5840881    1.5818402   0
    9  245.0601173  323.3065047  311.0059459  -0.5000  -0.5000   0.5000   -1.5823486   -1.5840881    1.5818402   0
    9  244.9289798  325.0855040  310.6854348  -0.5000  -0.5000   0.5000   -1.5823486   -1.5840881    1.5818402   0
    9  244.8967181  328.0304089  310.7750249  -0.5000  -0.5000   0.5000   -1.5823486   -1.5840881    1.5818402   0
    9  244.0112800  330.6253410  311.4014835  -0.5000  -0.5000   0.5000   -1.5823486   -1.5840881    1.5818402   0
    9  243.1093746  332.1189741  312.1920656  -0.5000  -0.5000   0.5000   -1.5823486   -1.5840881    1.5818402   0
    9  242.1004256  333.2876099  312.1456199  -0.5000  -0.5000   0.5000   -1.5823486   -1.5840881    1.5818402   0
    9  240.6939002  334.2728679  311.3735720  -0.5000  -0.5000   0.5000   -1.5823486   -1.5840881    1.5818402   0
    9  239.8037103  334.5020654  309.9641170  -0.5000  -0.5000   0.5000   -1.5823486   -1.5840881    1.5818402   0
    9  239.1708168  334.8032593  308.5601699  -0.5000  -0.5000   0.5000   -1.5823486   -1.5840881    1.5818402   0
    9  237.6615342  336.4200670  307.7279659  -0.5000  -0.5000   0.5000   -1.5823486   -1.5840881    1.5818402   0
    9  235.9332741  338.5824660  306.8387205  -0.5000  -0.5000   0.5000   -1.5823486   -1.5840881    1.5818402   0
    9  234.7176589  339.9186435  306.5255058  -0.5000  -0.5000   0.5000   -1.5823486   -1.5840881    1.5818402   0
    9  233.3652710  340.5787543  306.6913323  -0.5000  -0.5000   0.5000   -1.5823486   -1.5840881    1.5818402   0
    9  231.5046153  341.6501459  306.3008665  -0.5000  -0.5000   0.5000   -1.5823486   -1.5840881    1.5818402   0
    9  229.9070155  343.3448209  306.4535453  -0.5000  -0.5000   0.5000   -1.5823486   -1.5840881    1.5818402   0