ITEM: TIMESTEP
0
ITEM: NUMBER OF ATOMS
9577
ITEM: BOX BOUNDS pp pp pp 
0.0 695.969552
0.0 696.515892
0.0 697.996250
ITEM: ATOMS id x y z tbx tby tbz sbx sby sbz loop
    0  162.4617000  442.9548583  302.0376000  -0.5000  -0.5000   0.5000   -1.5822805   -1.5834161    1.5829080   0
    0  162.0693966  444.4185575  304.4984810  -0.5000  -0.5000   0.5000   -1.5822805   -1.5834161    1.5829080   0
    0  163.2851100  444.9347630  306.5433129  -0.5000  -0.5000   0.5000   -1.5822805   -1.5834161    1.5829080   0
    0  165.3565880  445.6127094  307.5305491  -0.5000  -0.5000   0.5000   -1.5822805   -1.5834161    1.5829080   0
    0  166.8755082  446.5149789  308.1168342  -0.5000  -0.5000   0.5000   -1.5822805   -1.5834161    1.5829080   0
    0  167.4682861  447.0483511  309.3442564  -0.5000  -0.5000   0.5000   -1.5822805   -1.5834161    1.5829080   0
    0  167.0372139  448.4909139  311.8357250  -0.5000  -0.5000   0.5000   -1.5822805   -1.5834161    1.5829080   0
    1  322.8111428   36.7895929  400.5860000   0.5000   0.5000  -0.5000    1.5822805    1.5834161   -1.5829080   0
    1  322.2689114   37.5404785  402.0113395   0.5000   0.5000  -0.5000    1.5822805    1.5834161   -1.5829080   0
    1  323.4186485   38.6701063  402.2445085   0.5000   0.5000  -0.5000    1.5822805    1.5834161   -1.5829080   0
    1  324.7611650   39.9932126  402.2988984   0.5000   0.5000  -0.5000    1.5822805    1.5834161   -1.5829080   0
    1  324.2659986   41.0459390  402.7853491   0.5000   0.5000  -0.5000    1.5822805    1.5834161   -1.5829080   0
    1  323.4048197   42.2715336  403.5951705   0.5000   0.5000  -0.5000    1.5822805    1.5834161   -1.5829080   0
    1  323.2535816   43.6234954  405.1465806   0.5000   0.5000  -0.5000    1.5822805    1.5834161   -1.5829080   0
    1  323.1429090   44.8253452  406.8818567   0.5000   0.5000  -0.5000    1.5822805    1.5834161   -1.5829080   0
    1  323.3268916   46.3354992  408.1038573   0.5000   0.5000  -0.5000    1.5822805    1.5834161   -1.5829080   0
    1  323.4749620   48.4763491  408.8407662   0.5000   0.5000  -0.5000    1.5822805    1.5834161   -1.5829080   0
    1  323.1880667   50.7035623  409.4597083   0.5000   0.5000  -0.5000    1.5822805    1.5834161   -1.5829080   0
    1  323.1214560   52.2236745  410.6117558   0.5000   0.5000  -0.5000    1.5822805    1.5834161   -1.5829080   0
    1  323.4503354   52.9408095  412.6930489   0.5000   0.5000  -0.5000    1.5822805    1.5834161   -1.5829080   0
    1  323.4898770   53.9481021  414.6854405   0.5000   0.5000  -0.5000    1.5822805    1.5834161   -1.5829080   0
    1  322.6185552   55.7842555  415.6873369   0.5000   0.5000  -0.5000    1.5822805    1.5834161   -1.5829080   0
    1  320.9360085   57.4468442  416.5364264   0.5000   0.5000  -0.5000    1.5822805    1.5834161   -1.5829080   0
    1  319.2665483   59.0349624  417.2276090   0.5000   0.5000  -0.5000    1.5822805    1.5834161   -1.5829080   0
    1  318.3882017   61.4315749  417.2125949   0.5000   0.5000  -0.5000    1.5822805    1.5834161   -1.5829080   0
    1  318.1279458   63.2554493  417.4167960   0.5000   0.5000  -0.5000    1.5822805    1.5834161   -1.5829080   0
    1  317.6065445   63.4761688  418.6543080   0.5000   0.5000  -0.5000    1.5822805    1.5834161   -1.5829080   0
    1  316.9057343   64.0403628  420.0371767   0.5000   0.5000  -0.5000    1.5822805    1.5834161   -1.5829080   0
    1  316.4010150   65.5693868  420.8323636   0.5000   0.5000  -0.5000    1.5822805    1.5834161   -1.5829080   0
    1  315.8667069   67.2619961  421.6626064   0.5000   0.5000  -0.5000    1.5822805    1.5834161   -1.5829080   0
    1  315.4285524   68.7584729  423.2124880   0.5000   0.5000  -0.5000    1.5822805    1.5834161   -1.5829080   0
    1  314.7513710   69.7212878  425.2486253   0.5000   0.5000  -0.5000    1.5822805    1.5834161   -1.5829080   0
    1  313.2195743   70.5294607  426.6050308   0.5000   0.5000  -0.5000    1.5822805    1.5834161   -1.5829080   0
    1  311.5202474   71.5080996  427.2801149   0.5000   0.5000  -0.5000    1.5822805    1.5834161   -1.5829080   0
    1  310.5080632   72.8983867  428.2643079   0.5000   0.5000  -0.5000    1.5822805    1.5834161   -1.5829080   0
    1  309.5674753   74.5615900  429.5641946   0.5000   0.5000  -0.5000    1.5822805    1.5834161   -1.5829080   0
    1  308.1212587   75.7332039  430.3603156   0.5000   0.5000  -0.5000    1.5822805    1.5834161   -1.5829080   0
    1  306.2365343   75.8453148  429.8645611   0.5000   0.5000  -0.5000    1.5822805    1.5834161   -1.5829080   0
    1  304.6605984   75.4118456  428.3124024   0.5000   0.5000  -0.5000    1.5822805    1.5834161   -1.5829080   0
    1  303.9559944   74.6484993  426.2184933   0.5000   0.5000  -0.5000    1.5822805    1.5834161   -1.5829080   0
    1  303.8638726   73.5183105  424.1228215   0.5000   0.5000  -0.5000    1.5822805    1.5834161   -1.5829080   0
    1  303.7749076   73.7188124  423.3458900   0.5000   0.5000  -0.5000    1.5822805    1.5834161   -1.5829080   0
    1  302.7820420   75.1974083  424.0982242   0.5000   0.5000  -0.5000    1.5822805    1.5834161   -1.5829080   0
    1  301.2209755   76.5047115  425.0296185   0.5000   0.5000  -0.5000    1.5822805    1.5834161   -1.5829080   0
    1  299.3162194   77.3072318  425.6294150   0.5000   0.5000  -0.5000    1.5822805    1.5834161   -1.5829080   0
    1  297.3236674   77.6029588  426.0433747   0.5000   0.5000  -0.5000    1.5822805    1.5834161   -1.5829080   0
    1  295.6747841   78.0145301  426.6743136   0.5000   0.5000  -0.5000    1.5822805    1.5834161   -1.5829080   0
    1  293.7835962   78.6533240  427.7562338   0.5000   0.5000  -0.5000    1.5822805    1.5834161   -1.5829080   0
    1  291.5755710   79.4456845  428.6455007   0.5000   0.5000  -0.5000    1.5822805    1.5834161   -1.5829080   0
    1  289.6343596   80.4407473  428.6956540   0.5000   0.5000  -0.5000    1.5822805    1.5834161   -1.5829080   0
    1  287.8642809   81.2842644  427.9499828   0.5000   0.5000  -0.5000    1.5822805    1.5834161   -1.5829080   0
    1  285.1154584   82.2094430  427.0996833   0.5000   0.5000  -0.5000    1.5822805    1.5834161   -1.5829080   0
    2  412.1505967  477.9323001  609.2705003  -0.5000   0.5000   0.5000   -1.5825149    1.5809009    1.5827282   1
    2  412.4963335  477.5114339  610.5895559  -0.5000   0.5000   0.5000   -1.5825149    1.5809009    1.5827282   1
    2  412.7008348  476.0741593  611.8756067  -0.5000   0.5000   0.5000   -1.5825149    1.5809009    1.5827282   1
    2  413.1798179  474.3513090  612.1798702  -0.5000   0.5000   0.5000   -1.5825149    1.5809009    1.5827282   1
    2  413.3664233  473.0076188  612.4186091  -0.5000   0.5000   0.5000   -1.5825149    1.5809009    1.5827282   1
    2  411.9626164  472.1443589  612.4195866  -0.5000   0.5000   0.5000   -1.5825149    1.5809009    1.5827282   1
    2  409.7521663  472.0225114  611.2948386  -0.5000   0.5000   0.5000   -1.5825149    1.5809009    1.5827282   1
    2  408.2111777  471.6920051  609.5841945  -0.5000   0.5000   0.5000   -1.5825149    1.5809009    1.5827282   1
    2  407.1412023  470.5481139  608.4201006  -0.5000   0.5000   0.5000   -1.5825149    1.5809009    1.5827282   1
    2  405.6471140  469.6318585  607.5470122  -0.5000   0.5000   0.5000   -1.5825149    1.5809009    1.5827282   1
    2  403.9524661  468.7184930  606.8957784  -0.5000   0.5000   0.5000   -1.5825149    1.5809009    1.5827282   1
    2  402.4110483  467.2367486  606.4968697  -0.5000   0.5000   0.5000   -1.5825149    1.5809009    1.5827282   1
    2  400.7456518  465.9866268  605.8296138  -0.5000   0.5000   0.5000   -1.5825149    1.5809009    1.5827282   1
    2  399.6173288  464.6334877  604.8868228  -0.5000   0.5000   0.5000   -1.5825149    1.5809009    1.5827282   1
    2  398.9554892  462.8485285  603.9567853  -0.5000   0.5000   0.5000   -1.5825149    1.5809009    1.5827282   1
    2  398.0480366  461.4419179  603.6234000  -0.5000   0.5000   0.5000   -1.5825149    1.5809009    1.5827282   1
    2  396.9568790  460.1168138  604.1308146  -0.5000   0.5000   0.5000   -1.5825149    1.5809009    1.5827282   1
    2  396.1121026  458.0986031  604.7676625  -0.5000   0.5000   0.5000   -1.5825149    1.5809009    1.5827282   1
    2  395.6929406  455.9372315  605.8388149  -0.5000   0.5000   0.5000   -1.5825149    1.5809009    1.5827282   1
    2  394.6746766  454.5202303  607.2506633  -0.5000   0.5000   0.5000   -1.5825149    1.5809009    1.5827282   1
    2  393.1129538  453.1133835  607.8386430  -0.5000   0.5000   0.5000   -1.5825149    1.5809009    1.5827282   1
    2  391.3972737  451.6396385  607.9019955  -0.5000   0.5000   0.5000   -1.5825149    1.5809009    1.5827282   1
    2  389.4806219  451.0806896  607.0439997  -0.5000   0.5000   0.5000   -1.5825149    1.5809009    1.5827282   1
    2  388.6939300  451.5305608  604.7353762  -0.5000   0.5000   0.5000   -1.5825149    1.5809009    1.5827282   1
    2  388.4611760  452.8615883  602.7163634  -0.5000   0.5000   0.5000   -1.5825149    1.5809009    1.5827282   1
    2  387.3618124  454.3570245  601.4459532  -0.5000   0.5000   0.5000   -1.5825149    1.5809009    1.5827282   1
    2  386.5461481  455.8351356  599.9261284  -0.5000   0.5000   0.5000   -1.5825149    1.5809009    1.5827282   1
    2  386.9792539  457.8290701  598.6106392  -0.5000   0.5000   0.5000   -1.5825149    1.5809009    1.5827282   1
    2  387.8006198  460.2857432  598.0613181  -0.5000   0.5000   0.5000   -1.5825149    1.5809009    1.5827282   1
    2  388.5179606  462.3906597  597.4923540  -0.5000   0.5000   0.5000   -1.5825149    1.5809009    1.5827282   1
    2  389.1765634  464.2703406  596.6834132  -0.5000   0.5000   0.5000   -1.5825149    1.5809009    1.5827282   1
    2  389.9268949  466.4357042  596.4629464  -0.5000   0.5000   0.5000   -1.5825149    1.5809009    1.5827282   1
    2  391.3358234  468.1060833  596.6201739  -0.5000   0.5000   0.5000   -1.5825149    1.5809009    1.5827282   1
    2  392.5387713  470.1142800  596.6055245  -0.5000   0.5000   0.5000   -1.5825149    1.5809009    1.5827282   1
    2  392.6827834  473.2431702  596.4953726  -0.5000   0.5000   0.5000   -1.5825149    1.5809009    1.5827282   1
    2  392.8488666  475.9775872  596.0803852  -0.5000   0.5000   0.5000   -1.5825149    1.5809009    1.5827282   1
    2  393.7615203  477.6754799  595.3184910  -0.5000   0.5000   0.5000   -1.5825149    1.5809009    1.5827282   1
    2  394.9101448  478.9737680  595.2620555  -0.5000   0.5000   0.5000   -1.5825149    1.5809009    1.5827282   1
    2  396.2374086  480.0286554  596.1692961  -0.5000   0.5000   0.5000   -1.5825149    1.5809009    1.5827282   1
    2  397.9648265  480.9488864  597.0773774  -0.5000   0.5000   0.5000   -1.5825149    1.5809009    1.5827282   1
    2  400.2632745  481.8664928  597.7880164  -0.5000   0.5000   0.5000   -1.5825149    1.5809009    1.5827282   1
    2  402.6995720  482.4852381  598.8294103  -0.5000   0.5000   0.5000   -1.5825149    1.5809009    1.5827282   1
    2  404.2203849  482.6715758  600.4874132  -0.5000   0.5000   0.5000   -1.5825149    1.5809009    1.5827282   1
    2  405.7281112  482.6653468  601.7929609  -0.5000   0.5000   0.5000   -1.5825149    1.5809009    1.5827282   1
    2  407.9330653  482.7686367  602.2872201  -0.5000   0.5000   0.5000   -1.5825149    1.5809009    1.5827282   1
    2  409.7401841  482.6169436  603.0135101  -0.5000   0.5000   0.5000   -1.5825149    1.5809009    1.5827282   1
    2  411.1121290  481.3931816  604.3414954  -0.5000   0.5000   0.5000   -1.5825149    1.5809009    1.5827282   1
    2  412.1702249  479.7529383  605.9693255  -0.5000   0.5000   0.5000   -1.5825149    1.5809009    1.5827282   1
    2  412.3741486  478.7822341  607.3749740  -0.5000   0.5000   0.5000   -1.5825149    1.5809009    1.5827282   1
    2  412.1505967  477.9323002  609.2705003  -0.5000   0.5000   0.5000   -1.5825149    1.5809009    1.5827282   1
    3  552.1330555  283.5262222  256.4158889  -0.5000  -0.5000   0.5000   -1.5822805   -1.5834161    1.5829080   0
    3  550.8086894  283.0326793  257.9278322  -0.5000  -0.5000   0.5000   -1.5822805   -1.5834161    1.5829080   0
    3  549.3029537  282.7475012  259.1672233  -0.5000  -0.5000   0.5000   -1.5822805   -1.5834161    1.5829080   0
    3  547.6995275  282.1810686  260.8668358  -0.5000  -0.5000   0.5000   -1.5822805   -1.5834161    1.5829080   0
    3  545.8549980  280.7118597  263.1955793  -0.5000  -0.5000   0.5000   -1.5822805   -1.5834161    1.5829080   0
    3  544.1956570  278.8694831  264.9813845  -0.5000  -0.5000   0.5000   -1.5822805   -1.5834161    1.5829080   0
    3  543.3236809  277.4214780  266.0601645  -0.5000  -0.5000   0.5000   -1.5822805   -1.5834161    1.5829080   0
    3  543.4368990  276.5220821  267.2900266  -0.5000  -0.5000   0.5000   -1.5822805   -1.5834161    1.5829080   0
    3  543.8458797  275.9659146  268.4665549  -0.5000  -0.5000   0.5000   -1.5822805   -1.5834161    1.5829080   0
    3  542.8834493  275.7563841  269.1922568  -0.5000  -0.5000   0.5000   -1.5822805   -1.5834161    1.5829080   0
    3  540.6764550  275.5484037  269.9151395  -0.5000  -0.5000   0.5000   -1.5822805   -1.5834161    1.5829080   0
    3  538.7305203  275.0483496  271.0847524  -0.5000  -0.5000   0.5000   -1.5822805   -1.5834161    1.5829080   0
    3  537.3228392  274.5567768  272.7987671  -0.5000  -0.5000   0.5000   -1.5822805   -1.5834161    1.5829080   0
    3  535.7146858  273.4381644  274.5788349  -0.5000  -0.5000   0.5000   -1.5822805   -1.5834161    1.5829080   0
    3  533.9041881  272.5960551  275.7470337  -0.5000  -0.5000   0.5000   -1.5822805   -1.5834161    1.5829080   0
    3  532.9393549  273.0460465  277.0342104  -0.5000  -0.5000   0.5000   -1.5822805   -1.5834161    1.5829080   0
    3  532.5239436  273.1862001  278.8914215  -0.5000  -0.5000   0.5000   -1.5822805   -1.5834161    1.5829080   0
    3  531.3110306  272.6291656  280.6707388  -0.5000  -0.5000   0.5000   -1.5822805   -1.5834161    1.5829080   0
    3  529.4904063  272.1892231  282.2095875  -0.5000  -0.5000   0.5000   -1.5822805   -1.5834161    1.5829080   0
    3  528.2461812  272.5084944  283.8226001  -0.5000  -0.5000   0.5000   -1.5822805   -1.5834161    1.5829080   0
    3  527.6558334  274.0561250  285.8360417  -0.5000  -0.5000   0.5000   -1.5822805   -1.5834161    1.5829080   0
    4  625.8524504   83.8352796  380.1732601  -0.5000   0.5000  -0.5000   -1.5819514    1.5843392   -1.5815549   1
    4  625.4901918   83.0759337  381.1005717  -0.5000   0.5000  -0.5000   -1.5819514    1.5843392   -1.5815549   1
    4  624.0808986   82.7869636  381.9658402  -0.5000   0.5000  -0.5000   -1.5819514    1.5843392   -1.5815549   1
    4  622.2479324   82.8220381  382.5314758  -0.5000   0.5000  -0.5000   -1.5819514    1.5843392   -1.5815549   1
    4  620.6975144   82.2607575  383.0474486  -0.5000   0.5000  -0.5000   -1.5819514    1.5843392   -1.5815549   1
    4  620.0752010   80.5304449  382.5236892  -0.5000   0.5000  -0.5000   -1.5819514    1.5843392   -1.5815549   1
    4  620.0534147   78.5305068  380.9528386  -0.5000   0.5000  -0.5000   -1.5819514    1.5843392   -1.5815549   1
    4  620.0847998   76.5858243  379.6249041  -0.5000   0.5000  -0.5000   -1.5819514    1.5843392   -1.5815549   1
    4  620.3890255   75.0405974  378.1868016  -0.5000   0.5000  -0.5000   -1.5819514    1.5843392   -1.5815549   1
    4  621.8546402   74.5053048  376.7286159  -0.5000   0.5000  -0.5000   -1.5819514    1.5843392   -1.5815549   1
    4  624.1555665   74.7650680  376.0361128  -0.5000   0.5000  -0.5000   -1.5819514    1.5843392   -1.5815549   1
    4  625.5805800   75.5516067  375.1417383  -0.5000   0.5000  -0.5000   -1.5819514    1.5843392   -1.5815549   1
    4  626.6331881   76.0662264  373.7771259  -0.5000   0.5000  -0.5000   -1.5819514    1.5843392   -1.5815549   1
    4  628.1190959   76.2393008  372.4585584  -0.5000   0.5000  -0.5000   -1.5819514    1.5843392   -1.5815549   1
    4  629.6053378   76.4722355  371.4240647  -0.5000   0.5000  -0.5000   -1.5819514    1.5843392   -1.5815549   1
    4  631.0588838   76.8046408  371.4689610  -0.5000   0.5000  -0.5000   -1.5819514    1.5843392   -1.5815549   1
    4  631.9184993   78.2521961  372.5022845  -0.5000   0.5000  -0.5000   -1.5819514    1.5843392   -1.5815549   1
    4  632.1869769   80.3685230  374.1425496  -0.5000   0.5000  -0.5000   -1.5819514    1.5843392   -1.5815549   1
    4  631.9852728   81.7174417  376.1528944  -0.5000   0.5000  -0.5000   -1.5819514    1.5843392   -1.5815549   1
    4  630.9749431   82.6101885  377.5103619  -0.5000   0.5000  -0.5000   -1.5819514    1.5843392   -1.5815549   1
    4  629.5131985   83.1506446  378.0362503  -0.5000   0.5000  -0.5000   -1.5819514    1.5843392   -1.5815549   1
    4  628.0738215   83.3218915  378.3097477  -0.5000   0.5000  -0.5000   -1.5819514    1.5843392   -1.5815549   1
    4  626.9712738   83.6380825  378.7791950  -0.5000   0.5000  -0.5000   -1.5819514    1.5843392   -1.5815549   1
    4  625.8524506   83.8352796  380.1732601  -0.5000   0.5000  -0.5000   -1.5819514    1.5843392   -1.5815549   1
    5  636.0767222  189.5721666  616.2628333  -0.5000   0.5000  -0.5000   -1.5819514    1.5843392   -1.5815549   0
    5  637.5889467  188.1397371  616.8625246  -0.5000   0.5000  -0.5000   -1.5819514    1.5843392   -1.5815549   0
    5  639.4968517  186.5603878  618.4120918  -0.5000   0.5000  -0.5000   -1.5819514    1.5843392   -1.5815549   0
    5  641.7083798  184.8703536  620.1095370  -0.5000   0.5000  -0.5000   -1.5819514    1.5843392   -1.5815549   0
    5  643.9338529  183.5188160  621.1995339  -0.5000   0.5000  -0.5000   -1.5819514    1.5843392   -1.5815549   0
    5  645.7197109  182.6594995  622.4597070  -0.5000   0.5000  -0.5000   -1.5819514    1.5843392   -1.5815549   0
    5  647.1141044  181.9878335  624.1055006  -0.5000   0.5000  -0.5000   -1.5819514    1.5843392   -1.5815549   0
    5  648.6123396  181.2570744  625.5638847  -0.5000   0.5000  -0.5000   -1.5819514    1.5843392   -1.5815549   0
    5  650.1860448  180.4280393  626.3553869  -0.5000   0.5000  -0.5000   -1.5819514    1.5843392   -1.5815549   0
    5  651.6464282  179.9513158  626.6864637  -0.5000   0.5000  -0.5000   -1.5819514    1.5843392   -1.5815549   0
    5  653.0822071  179.2641685  627.2153332  -0.5000   0.5000  -0.5000   -1.5819514    1.5843392   -1.5815549   0
    5  654.2883220  177.4026112  627.9444372  -0.5000   0.5000  -0.5000   -1.5819514    1.5843392   -1.5815549   0
    5  655.1923417  175.2287723  628.2424628  -0.5000   0.5000  -0.5000   -1.5819514    1.5843392   -1.5815549   0
    5  656.4940634  173.5210807  628.4164194  -0.5000   0.5000  -0.5000   -1.5819514    1.5843392   -1.5815549   0
    5  658.4110077  171.7371822  629.1411979  -0.5000   0.5000  -0.5000   -1.5819514    1.5843392   -1.5815549   0
    5  660.2250439  169.7050223  630.0022598  -0.5000   0.5000  -0.5000   -1.5819514    1.5843392   -1.5815549   0
    5  661.7157190  168.0323535  630.6710226  -0.5000   0.5000  -0.5000   -1.5819514    1.5843392   -1.5815549   0
    5  663.3565665  166.6656272  631.4317287  -0.5000   0.5000  -0.5000   -1.5819514    1.5843392   -1.5815549   0
    5  665.3363746  165.0064202  632.7675765  -0.5000   0.5000  -0.5000   -1.5819514    1.5843392   -1.5815549   0
    5  667.0362052  163.0340672  634.0815721  -0.5000   0.5000  -0.5000   -1.5819514    1.5843392   -1.5815549   0
    5  668.0993459  161.0792138  634.8492377  -0.5000   0.5000  -0.5000   -1.5819514    1.5843392   -1.5815549   0
    5  669.0926490  159.1888502  635.6078845  -0.5000   0.5000  -0.5000   -1.5819514    1.5843392   -1.5815549   0
    5  670.2958167  157.1923834  635.9327500  -0.5000   0.5000  -0.5000   -1.5819514    1.5843392   -1.5815549   0
    6  463.3570347  301.9065336  595.2263214  -0.5000  -0.5000  -0.5000   -1.5817171   -1.5799778   -1.5813752   1
    6  463.1287737  302.7918703  596.2795161  -0.5000  -0.5000  -0.5000   -1.5817171   -1.5799778   -1.5813752   1
    6  462.9333685  303.1353845  598.3956136  -0.5000  -0.5000  -0.5000   -1.5817171   -1.5799778   -1.5813752   1
    6  462.6382520  302.1002858  600.3162157  -0.5000  -0.5000  -0.5000   -1.5817171   -1.5799778   -1.5813752   1
    6  461.4522547  300.9308611  601.9447767  -0.5000  -0.5000  -0.5000   -1.5817171   -1.5799778   -1.5813752   1
    6  460.6246966  299.8291976  603.6093492  -0.5000  -0.5000  -0.5000   -1.5817171   -1.5799778   -1.5813752   1
    6  460.6785764  298.1015244  604.9701233  -0.5000  -0.5000  -0.5000   -1.5817171   -1.5799778   -1.5813752   1
    6  461.2782289  296.2245108  606.2292169  -0.5000  -0.5000  -0.5000   -1.5817171   -1.5799778   -1.5813752   1
    6  462.3778132  294.6627820  606.5795474  -0.5000  -0.5000  -0.5000   -1.5817171   -1.5799778   -1.5813752   1
    6  464.2343363  293.9207877  605.6556366  -0.5000  -0.5000  -0.5000   -1.5817171   -1.5799778   -1.5813752   1
    6  466.6197856  293.8490876  604.2305147  -0.5000  -0.5000  -0.5000   -1.5817171   -1.5799778   -1.5813752   1
    6  467.5843355  294.2348810  602.4049061  -0.5000  -0.5000  -0.5000   -1.5817171   -1.5799778   -1.5813752   1
    6  466.8306386  295.5231112  600.7323961  -0.5000  -0.5000  -0.5000   -1.5817171   -1.5799778   -1.5813752   1
    6  465.7147563  297.2272302  599.6532245  -0.5000  -0.5000  -0.5000   -1.5817171   -1.5799778   -1.5813752   1
    6  465.1633307  299.2601801  598.6261620  -0.5000  -0.5000  -0.5000   -1.5817171   -1.5799778   -1.5813752   1
    6  465.1107870  301.2176655  597.5728679  -0.5000  -0.5000  -0.5000   -1.5817171   -1.5799778   -1.5813752   1
    6  464.6338448  301.8876165  596.6145745  -0.5000  -0.5000  -0.5000   -1.5817171   -1.5799778   -1.5813752   1
    6  463.3570347  301.9065336  595.2263214  -0.5000  -0.5000  -0.5000   -1.5817171   -1.5799778   -1.5813752   1
    7  495.8699078  158.5568372  620.5279470   0.5000   0.5000   0.5000    1.5817171    1.5799778    1.5813752   1
    7  494.7342893  157.8708985  620.1470420   0.5000   0.5000   0.5000    1.5817171    1.5799778    1.5813752   1
    7  492.5073549  157.5900198  620.5657435   0.5000   0.5000   0.5000    1.5817171    1.5799778    1.5813752   1
    7  490.5136595  158.2004760  622.0174461   0.5000   0.5000   0.5000    1.5817171    1.5799778    1.5813752   1
    7  489.5536501  158.4075263  624.1335496   0.5000   0.5000   0.5000    1.5817171    1.5799778    1.5813752   1
    7  488.9187211  158.0312983  626.2928359   0.5000   0.5000   0.5000    1.5817171    1.5799778    1.5813752   1
    7  487.9826933  157.4686968  628.0796332   0.5000   0.5000   0.5000    1.5817171    1.5799778    1.5813752   1
    7  486.5237497  156.8357609  629.2735256   0.5000   0.5000   0.5000    1.5817171    1.5799778    1.5813752   1
    7  485.7708700  157.4386082  630.6548158   0.5000   0.5000   0.5000    1.5817171    1.5799778    1.5813752   1
    7  486.4796879  158.8877819  632.1130077   0.5000   0.5000   0.5000    1.5817171    1.5799778    1.5813752   1
    7  486.6476132  159.7171146  632.1603055   0.5000   0.5000   0.5000    1.5817171    1.5799778    1.5813752   1
    7  485.5048770  160.7669493  630.9798653   0.5000   0.5000   0.5000    1.5817171    1.5799778    1.5813752   1
    7  484.3247680  162.2538672  629.8804121   0.5000   0.5000   0.5000    1.5817171    1.5799778    1.5813752   1
    7  483.8830228  164.3479751  629.2330921   0.5000   0.5000   0.5000    1.5817171    1.5799778    1.5813752   1
    7  483.8602913  166.9841764  628.4491679   0.5000   0.5000   0.5000    1.5817171    1.5799778    1.5813752   1
    7  484.1045828  168.8241855  626.9813093   0.5000   0.5000   0.5000    1.5817171    1.5799778    1.5813752   1
    7  484.9075622  169.6640653  625.1560927   0.5000   0.5000   0.5000    1.5817171    1.5799778    1.5813752   1
    7  486.3635418  169.7504773  623.4444475   0.5000   0.5000   0.5000    1.5817171    1.5799778    1.5813752   1
    7  487.9569692  169.9580326  622.2323574   0.5000   0.5000   0.5000    1.5817171    1.5799778    1.5813752   1
    7  489.1937058  170.7253479  621.1947613   0.5000   0.5000   0.5000    1.5817171    1.5799778    1.5813752   1
    7  490.2513314  171.2637855  620.0187138   0.5000   0.5000   0.5000    1.5817171    1.5799778    1.5813752   1
    7  490.9250276  171.7081133  618.9461289   0.5000   0.5000   0.5000    1.5817171    1.5799778    1.5813752   1
    7  491.5652475  171.3066037  618.2840834   0.5000   0.5000   0.5000    1.5817171    1.5799778    1.5813752   1
    7  492.6161799  169.6119263  618.3331008   0.5000   0.5000   0.5000    1.5817171    1.5799778    1.5813752   1
    7  493.7078585  167.8744850  618.1511117   0.5000   0.5000   0.5000    1.5817171    1.5799778    1.5813752   1
    7  494.2769759  166.0132870  617.6923999   0.5000   0.5000   0.5000    1.5817171    1.5799778    1.5813752   1
    7  494.4871766  163.6959171  618.1950148   0.5000   0.5000   0.5000    1.5817171    1.5799778    1.5813752   1
    7  494.8564433  161.6248153  619.3497320   0.5000   0.5000   0.5000    1.5817171    1.5799778    1.5813752   1
    7  495.3305435  160.2321279  620.1652961   0.5000   0.5000   0.5000    1.5817171    1.5799778    1.5813752   1
    7  495.8699078  158.5568373  620.5279471   0.5000   0.5000   0.5000    1.5817171    1.5799778    1.5813752   1
    8   94.8665317   52.7987828  116.7187519  -0.5000  -0.5000  -0.5000   -1.5817171   -1.5799778   -1.5813752   1
    8   95.2892003   54.5406296  117.0232373  -0.5000  -0.5000  -0.5000   -1.5817171   -1.5799778   -1.5813752   1
    8   94.9679846   56.3662036  117.0058617  -0.5000  -0.5000  -0.5000   -1.5817171   -1.5799778   -1.5813752   1
    8   93.9524373   57.8352088  117.1521634  -0.5000  -0.5000  -0.5000   -1.5817171   -1.5799778   -1.5813752   1
    8   92.6727448   59.2796752  117.9309824  -0.5000  -0.5000  -0.5000   -1.5817171   -1.5799778   -1.5813752   1
    8   90.7506155   60.6801679  118.4384368  -0.5000  -0.5000  -0.5000   -1.5817171   -1.5799778   -1.5813752   1
    8   88.8612409   61.0836036  119.1181541  -0.5000  -0.5000  -0.5000   -1.5817171   -1.5799778   -1.5813752   1
    8   87.4802863   60.5795669  120.2275331  -0.5000  -0.5000  -0.5000   -1.5817171   -1.5799778   -1.5813752   1
    8   85.1867220   60.4517802  120.9418146  -0.5000  -0.5000  -0.5000   -1.5817171   -1.5799778   -1.5813752   1
    8   82.3488906   60.3979251  121.5591991  -0.5000  -0.5000  -0.5000   -1.5817171   -1.5799778   -1.5813752   1
    8   80.7822774   60.0140574  123.3394439  -0.5000  -0.5000  -0.5000   -1.5817171   -1.5799778   -1.5813752   1
    8   80.5302278   59.6060986  126.0558406  -0.5000  -0.5000  -0.5000   -1.5817171   -1.5799778   -1.5813752   1
    8   80.5652017   58.1792306  127.8099843  -0.5000  -0.5000  -0.5000   -1.5817171   -1.5799778   -1.5813752   1
    8   80.5297830   55.3673688  128.0475125  -0.5000  -0.5000  -0.5000   -1.5817171   -1.5799778   -1.5813752   1
    8   80.8703741   52.8286661  128.3551790  -0.5000  -0.5000  -0.5000   -1.5817171   -1.5799778   -1.5813752   1
    8   81.5512384   50.9028030  129.2106493  -0.5000  -0.5000  -0.5000   -1.5817171   -1.5799778   -1.5813752   1
    8   82.3510093   48.8386163  129.6219787  -0.5000  -0.5000  -0.5000   -1.5817171   -1.5799778   -1.5813752   1
    8   84.1425336   47.4796571  129.6225333  -0.5000  -0.5000  -0.5000   -1.5817171   -1.5799778   -1.5813752   1
    8   86.2375588   46.8668749  129.1347697  -0.5000  -0.5000  -0.5000   -1.5817171   -1.5799778   -1.5813752   1
    8   87.4620157   46.1803797  127.9378461  -0.5000  -0.5000  -0.5000   -1.5817171   -1.5799778   -1.5813752   1
    8   88.3209557   44.9588652  127.0455905  -0.5000  -0.5000  -0.5000   -1.5817171   -1.5799778   -1.5813752   1
    8   89.6637833   43.0901365  127.0975095  -0.5000  -0.5000  -0.5000   -1.5817171   -1.5799778   -1.5813752   1
    8   91.7971314   41.6741525  127.1951051  -0.5000  -0.5000  -0.5000   -1.5817171   -1.5799778   -1.5813752   1
    8   93.9088513   40.9613705  126.5397128  -0.5000  -0.5000  -0.5000   -1.5817171   -1.5799778   -1.5813752   1
    8   95.7774597   40.1572536  125.6056733  -0.5000  -0.5000  -0.5000   -1.5817171   -1.5799778   -1.5813752   1
    8   97.3196243   39.5965058  124.5421253  -0.5000  -0.5000  -0.5000   -1.5817171   -1.5799778   -1.5813752   1
    8   98.6331882   39.6332772  123.3270645  -0.5000  -0.5000  -0.5000   -1.5817171   -1.5799778   -1.5813752   1
    8  100.0300279   39.6078601  122.1392244  -0.5000  -0.5000  -0.5000   -1.5817171   -1.5799778   -1.5813752   1
    8  101.2136384   39.7611779  120.6879076  -0.5000  -0.5000  -0.5000   -1.5817171   -1.5799778   -1.5813752   1
    8  101.9335646   40.8955274  119.3096232  -0.5000  -0.5000  -0.5000   -1.5817171   -1.5799778   -1.5813752   1
    8  102.1764220   42.5472902  118.0537732  -0.5000  -0.5000  -0.5000   -1.5817171   -1.5799778   -1.5813752   1
    8  102.5130925   43.8522346  116.4702458  -0.5000  -0.5000  -0.5000   -1.5817171   -1.5799778   -1.5813752   1
    8  102.9354319   44.9235298  114.8152826  -0.5000  -0.5000  -0.5000   -1.5817171   -1.5799778   -1.5813752   1
    8  102.9414027   46.2125670  113.3691970  -0.5000  -0.5000  -0.5000   -1.5817171   -1.5799778   -1.5813752   1
    8  102.4205072   48.0198525  112.6683443  -0.5000  -0.5000  -0.5000   -1.5817171   -1.5799778   -1.5813752   1
    8  101.2549794   49.9020168  113.0436270  -0.5000  -0.5000  -0.5000   -1.5817171   -1.5799778   -1.5813752   1
    8   99.4501517   51.2563200  113.7583850  -0.5000  -0.5000  -0.5000   -1.5817171   -1.5799778   -1.5813752   1
    8   97.8924164   52.3678164  114.5225971  -0.5000  -0.5000  -0.5000   -1.5817171   -1.5799778   -1.5813752   1
    8   97.0057559   53.0227027  115.6726868  -0.5000  -0.5000  -0.5000   -1.5817171   -1.5799778   -1.5813752   1
    8   96.1205132   52.8650116  116.4289561  -0.5000  -0.5000  -0.5000   -1.5817171   -1.5799778   -1.5813752   1
    8   94.8665317   52.7987827  116.7187519  -0.5000  -0.5000  -0.5000   -1.5817171   -1.5799778   -1.5813752   1