ITEM: TIMESTEP
0
ITEM: NUMBER OF ATOMS
9701
ITEM: BOX BOUNDS pp pp pp 
0.0 696.127890
0.0 696.541010
0.0 697.776628
ITEM: ATOMS id x y z tbx tby tbz sbx sby sbz loop
    0  591.0343690  610.5473512  605.4539286  -0.5000  -0.5000  -0.5000   -1.5811662   -1.5799070   -1.5816903   0
    0  592.9884928  611.7969728  606.7164039  -0.5000  -0.5000  -0.5000   -1.5811662   -1.5799070   -1.5816903   0
    0  594.9697206  613.2005995  608.0824685  -0.5000  -0.5000  -0.5000   -1.5811662   -1.5799070   -1.5816903   0
    0  597.1645603  614.9361311  609.5726446  -0.5000  -0.5000  -0.5000   -1.5811662   -1.5799070   -1.5816903   0
    0  599.3162219  616.5349257  610.6338957  -0.5000  -0.5000  -0.5000   -1.5811662   -1.5799070   -1.5816903   0
    0  601.1533378  617.9168958  611.3864069  -0.5000  -0.5000  -0.5000   -1.5811662   -1.5799070   -1.5816903   0
    0  602.9755768  619.2387936  612.2280500  -0.5000  -0.5000  -0.5000   -1.5811662   -1.5799070   -1.5816903   0
    0  605.1831066  620.4328699  613.2456114  -0.5000  -0.5000  -0.5000   -1.5811662   -1.5799070   -1.5816903   0
    0  607.1444905  621.1164415  614.7553660  -0.5000  -0.5000  -0.5000   -1.5811662   -1.5799070   -1.5816903   0
    0  608.3462396  621.2919575  616.3352022  -0.5000  -0.5000  -0.5000   -1.5811662   -1.5799070   -1.5816903   0
    0  609.6903120  621.5933659  617.2647251  -0.5000  -0.5000  -0.5000   -1.5811662   -1.5799070   -1.5816903   0
    0  611.8638301  622.1769387  618.0623667  -0.5000  -0.5000  -0.5000   -1.5811662   -1.5799070   -1.5816903   0
    0  614.4669245  623.0799004  619.1850529  -0.5000  -0.5000  -0.5000   -1.5811662   -1.5799070   -1.5816903   0
    0  616.8602112  624.0729918  620.2433712  -0.5000  -0.5000  -0.5000   -1.5811662   -1.5799070   -1.5816903   0
    0  619.0678995  624.9110729  621.0823102  -0.5000  -0.5000  -0.5000   -1.5811662   -1.5799070   -1.5816903   0
    0  621.2277796  625.7007415  621.8660470  -0.5000  -0.5000  -0.5000   -1.5811662   -1.5799070   -1.5816903   0
    0  623.4235758  626.6069460  623.0324211  -0.5000  -0.5000  -0.5000   -1.5811662   -1.5799070   -1.5816903   0
    0  625.3172304  627.5235754  624.8334283  -0.5000  -0.5000  -0.5000   -1.5811662   -1.5799070   -1.5816903   0
    0  626.6310325  627.8668770  626.5187779  -0.5000  -0.5000  -0.5000   -1.5811662   -1.5799070   -1.5816903   0
    0  628.0559561  628.0165939  627.9716615  -0.5000  -0.5000  -0.5000   -1.5811662   -1.5799070   -1.5816903   0
    0  629.4863236  628.2616489  629.8025971  -0.5000  -0.5000  -0.5000   -1.5811662   -1.5799070   -1.5816903   0
    0  630.5107562  628.0559351  631.3557867  -0.5000  -0.5000  -0.5000   -1.5811662   -1.5799070   -1.5816903   0
    0  630.7997098  628.0247733  632.1305521  -0.5000  -0.5000  -0.5000   -1.5811662   -1.5799070   -1.5816903   0
    0  630.4503237  628.5709710  633.6067145  -0.5000  -0.5000  -0.5000   -1.5811662   -1.5799070   -1.5816903   0
    0  631.0452757  628.8647857  636.2891614  -0.5000  -0.5000  -0.5000   -1.5811662   -1.5799070   -1.5816903   0
    0  632.9321556  629.3428458  638.5584040  -0.5000  -0.5000  -0.5000   -1.5811662   -1.5799070   -1.5816903   0
    0  634.9358952  630.1941787  639.8287056  -0.5000  -0.5000  -0.5000   -1.5811662   -1.5799070   -1.5816903   0
    0  636.9926983  630.3342206  640.5290710  -0.5000  -0.5000  -0.5000   -1.5811662   -1.5799070   -1.5816903   0
    0  639.3583264  630.4320451  640.8719200  -0.5000  -0.5000  -0.5000   -1.5811662   -1.5799070   -1.5816903   0
    0  641.4054516  630.8729616  641.4609434  -0.5000  -0.5000  -0.5000   -1.5811662   -1.5799070   -1.5816903   0
    0  643.4333796  630.9672645  642.5476226  -0.5000  -0.5000  -0.5000   -1.5811662   -1.5799070   -1.5816903   0
    0  646.0617342  631.0758459  643.2657586  -0.5000  -0.5000  -0.5000   -1.5811662   -1.5799070   -1.5816903   0
    0  648.5215924  631.7704028  643.3011589  -0.5000  -0.5000  -0.5000   -1.5811662   -1.5799070   -1.5816903   0
    0  650.2641320  633.1315484  642.6832583  -0.5000  -0.5000  -0.5000   -1.5811662   -1.5799070   -1.5816903   0
    0  651.8763363  634.4382031  641.6515449  -0.5000  -0.5000  -0.5000   -1.5811662   -1.5799070   -1.5816903   0
    0  653.8651143  635.3217070  641.3343688  -0.5000  -0.5000  -0.5000   -1.5811662   -1.5799070   -1.5816903   0
    0  656.1929701  636.0604451  642.0341381  -0.5000  -0.5000  -0.5000   -1.5811662   -1.5799070   -1.5816903   0
    0  658.6075438  636.0871094  643.1719885  -0.5000  -0.5000  -0.5000   -1.5811662   -1.5799070   -1.5816903   0
    0  661.1005676  635.6269465  644.3545030  -0.5000  -0.5000  -0.5000   -1.5811662   -1.5799070   -1.5816903   0
    0  663.7296129  635.4891392  644.7561060  -0.5000  -0.5000  -0.5000   -1.5811662   -1.5799070   -1.5816903   0
    0  665.9856202  635.5206152  644.1434193  -0.5000  -0.5000  -0.5000   -1.5811662   -1.5799070   -1.5816903   0
    0  667.4970330  636.3203303  643.4837419  -0.5000  -0.5000  -0.5000   -1.5811662   -1.5799070   -1.5816903   0
    0  668.7162711  637.6391049  643.4032610  -0.5000  -0.5000  -0.5000   -1.5811662   -1.5799070   -1.5816903   0
    0  670.4197875  638.1566810  644.0506338  -0.5000  -0.5000  -0.5000   -1.5811662   -1.5799070   -1.5816903   0
    0  672.6336890  638.0769427  645.0689817  -0.5000  -0.5000  -0.5000   -1.5811662   -1.5799070   -1.5816903   0
    0  674.6979621  637.8154976  646.1186768  -0.5000  -0.5000  -0.5000   -1.5811662   -1.5799070   -1.5816903   0
    0  676.0238856  636.8656344  647.0173497  -0.5000  -0.5000  -0.5000   -1.5811662   -1.5799070   -1.5816903   0
    0  677.3462446  635.7033566  647.4628556  -0.5000  -0.5000  -0.5000   -1.5811662   -1.5799070   -1.5816903   0
    0  679.3271306  635.2860269  648.0707002  -0.5000  -0.5000  -0.5000   -1.5811662   -1.5799070   -1.5816903   0
    0  681.7811079  634.9513867  649.0802949  -0.5000  -0.5000  -0.5000   -1.5811662   -1.5799070   -1.5816903   0
    0  684.9767385  634.4571384  649.6334324  -0.5000  -0.5000  -0.5000   -1.5811662   -1.5799070   -1.5816903   0
    0  687.9480331  634.1696620  649.4515866  -0.5000  -0.5000  -0.5000   -1.5811662   -1.5799070   -1.5816903   0
    0  689.8054704  633.8829191  648.3962719  -0.5000  -0.5000  -0.5000   -1.5811662   -1.5799070   -1.5816903   0
    0  691.1927265  633.8816308  647.3847475  -0.5000  -0.5000  -0.5000   -1.5811662   -1.5799070   -1.5816903   0
    0  692.3456312  634.7001210  647.4811779  -0.5000  -0.5000  -0.5000   -1.5811662   -1.5799070   -1.5816903   0
    0  693.4706394  635.5520949  647.4748558  -0.5000  -0.5000  -0.5000   -1.5811662   -1.5799070   -1.5816903   0
    0  695.1242296  634.9289321  646.7447134  -0.5000  -0.5000  -0.5000   -1.5811662   -1.5799070   -1.5816903   0
    0  697.3179634  633.6829141  646.1573954  -0.5000  -0.5000  -0.5000   -1.5811662   -1.5799070   -1.5816903   0
    0  699.8004214  633.0821053  646.1583533  -0.5000  -0.5000  -0.5000   -1.5811662   -1.5799070   -1.5816903   0
    0  701.6811364  632.3370038  646.7956974  -0.5000  -0.5000  -0.5000   -1.5811662   -1.5799070   -1.5816903   0
    0  702.6216518  631.1758266  647.9991203  -0.5000  -0.5000  -0.5000   -1.5811662   -1.5799070   -1.5816903   0
    0  703.4033501  630.1969488  649.8016636  -0.5000  -0.5000  -0.5000   -1.5811662   -1.5799070   -1.5816903   0
    0  704.3999574  629.4864068  651.6424612  -0.5000  -0.5000  -0.5000   -1.5811662   -1.5799070   -1.5816903   0
    0  706.3516311  628.6590310  653.4196684  -0.5000  -0.5000  -0.5000   -1.5811662   -1.5799070   -1.5816903   0
    0  709.4029010  627.3070881  656.3507333  -0.5000  -0.5000  -0.5000   -1.5811662   -1.5799070   -1.5816903   0
    1  578.9538595  282.5276087    4.9052798   0.5000   0.5000   0.5000    1.5811662    1.5799070    1.5816903   0
    1  579.6529190  289.4199050    4.1397137   0.5000   0.5000   0.5000    1.5811662    1.5799070    1.5816903   0
    1  580.7445790  290.1301338    3.4298183   0.5000   0.5000   0.5000    1.5811662    1.5799070    1.5816903   0
    1  581.9815021  287.9225740    3.3758396   0.5000   0.5000   0.5000    1.5811662    1.5799070    1.5816903   0
    1  582.9053307  285.7795233    3.8561149   0.5000   0.5000   0.5000    1.5811662    1.5799070    1.5816903   0
    1  583.0187370  283.7561889    4.3791083   0.5000   0.5000   0.5000    1.5811662    1.5799070    1.5816903   0
    1  581.9291885  282.5424357    4.5759653   0.5000   0.5000   0.5000    1.5811662    1.5799070    1.5816903   0
    1  578.9538595  282.5276087    4.9052798   0.5000   0.5000   0.5000    1.5811662    1.5799070    1.5816903   0
    2  475.2093175  226.4572110  418.9962077  -0.5000  -0.5000  -0.5000   -1.5811662   -1.5799070   -1.5816903   1
    2  476.1187249  227.2597031  418.2866186  -0.5000  -0.5000  -0.5000   -1.5811662   -1.5799070   -1.5816903   1
    2  476.6456910  228.4801562  416.8090517  -0.5000  -0.5000  -0.5000   -1.5811662   -1.5799070   -1.5816903   1
    2  475.7004538  229.6668551  415.6355820  -0.5000  -0.5000  -0.5000   -1.5811662   -1.5799070   -1.5816903   1
    2  474.0579635  231.2495768  415.1445874  -0.5000  -0.5000  -0.5000   -1.5811662   -1.5799070   -1.5816903   1
    2  472.5819236  233.2612767  415.5957192  -0.5000  -0.5000  -0.5000   -1.5811662   -1.5799070   -1.5816903   1
    2  471.3299868  234.3721342  417.1871169  -0.5000  -0.5000  -0.5000   -1.5811662   -1.5799070   -1.5816903   1
    2  470.3787565  234.2042784  419.1465872  -0.5000  -0.5000  -0.5000   -1.5811662   -1.5799070   -1.5816903   1
    2  469.8625843  233.1938397  420.9013585  -0.5000  -0.5000  -0.5000   -1.5811662   -1.5799070   -1.5816903   1
    2  469.7590969  231.4399192  422.4720200  -0.5000  -0.5000  -0.5000   -1.5811662   -1.5799070   -1.5816903   1
    2  469.9907483  228.9596223  423.1820024  -0.5000  -0.5000  -0.5000   -1.5811662   -1.5799070   -1.5816903   1
    2  471.0864738  226.7995707  423.2685360  -0.5000  -0.5000  -0.5000   -1.5811662   -1.5799070   -1.5816903   1
    2  473.1767052  226.0992729  423.0110009  -0.5000  -0.5000  -0.5000   -1.5811662   -1.5799070   -1.5816903   1
    2  474.4923585  226.1569197  421.7589035  -0.5000  -0.5000  -0.5000   -1.5811662   -1.5799070   -1.5816903   1
    2  475.2093175  226.4572109  418.9962077  -0.5000  -0.5000  -0.5000   -1.5811662   -1.5799070   -1.5816903   1
    3  358.8165423  322.3772331  464.9746165  -0.5000   0.5000  -0.5000   -1.5819849    1.5843603   -1.5816836   1
    3  357.8402109  323.3530739  466.3339572  -0.5000   0.5000  -0.5000   -1.5819849    1.5843603   -1.5816836   1
    3  356.2049376  324.0483579  468.3270151  -0.5000   0.5000  -0.5000   -1.5819849    1.5843603   -1.5816836   1
    3  354.2695661  323.5578943  469.8003926  -0.5000   0.5000  -0.5000   -1.5819849    1.5843603   -1.5816836   1
    3  352.9343990  322.8274665  471.3079720  -0.5000   0.5000  -0.5000   -1.5819849    1.5843603   -1.5816836   1
    3  351.4590514  322.1825492  472.7364003  -0.5000   0.5000  -0.5000   -1.5819849    1.5843603   -1.5816836   1
    3  349.6394560  320.8767291  473.3202500  -0.5000   0.5000  -0.5000   -1.5819849    1.5843603   -1.5816836   1
    3  347.9666542  318.9632517  473.2249618  -0.5000   0.5000  -0.5000   -1.5819849    1.5843603   -1.5816836   1
    3  346.3942102  317.8018746  472.4998837  -0.5000   0.5000  -0.5000   -1.5819849    1.5843603   -1.5816836   1
    3  345.7826154  316.9554577  471.2970105  -0.5000   0.5000  -0.5000   -1.5819849    1.5843603   -1.5816836   1
    3  346.3999616  315.3784431  470.1866619  -0.5000   0.5000  -0.5000   -1.5819849    1.5843603   -1.5816836   1
    3  347.5481718  314.2377911  468.8163138  -0.5000   0.5000  -0.5000   -1.5819849    1.5843603   -1.5816836   1
    3  349.4654966  314.1704058  467.0797669  -0.5000   0.5000  -0.5000   -1.5819849    1.5843603   -1.5816836   1
    3  351.7044667  314.0396489  465.4936734  -0.5000   0.5000  -0.5000   -1.5819849    1.5843603   -1.5816836   1
    3  353.3866056  313.3851187  464.2704660  -0.5000   0.5000  -0.5000   -1.5819849    1.5843603   -1.5816836   1
    3  355.0589387  313.6582920  463.4396186  -0.5000   0.5000  -0.5000   -1.5819849    1.5843603   -1.5816836   1
    3  356.4246216  315.6799227  463.0633230  -0.5000   0.5000  -0.5000   -1.5819849    1.5843603   -1.5816836   1
    3  357.2496870  318.1041139  463.3882278  -0.5000   0.5000  -0.5000   -1.5819849    1.5843603   -1.5816836   1
    3  358.0650019  319.9165234  464.0043630  -0.5000   0.5000  -0.5000   -1.5819849    1.5843603   -1.5816836   1
    3  358.8165421  322.3772332  464.9746167  -0.5000   0.5000  -0.5000   -1.5819849    1.5843603   -1.5816836   1
    4  347.5573530  312.5878643  640.3836175   0.5000   0.5000   0.5000    1.5811662    1.5799070    1.5816903   1
    4  348.9995419  313.3460253  640.0099350   0.5000   0.5000   0.5000    1.5811662    1.5799070    1.5816903   1
    4  349.4861505  314.6514166  638.6677326   0.5000   0.5000   0.5000    1.5811662    1.5799070    1.5816903   1
    4  349.4788007  315.8150620  636.2053951   0.5000   0.5000   0.5000    1.5811662    1.5799070    1.5816903   1
    4  349.8635908  316.5980662  633.9320817   0.5000   0.5000   0.5000    1.5811662    1.5799070    1.5816903   1
    4  351.2442406  316.8641982  632.6738226   0.5000   0.5000   0.5000    1.5811662    1.5799070    1.5816903   1
    4  353.1025614  315.6913696  632.1881251   0.5000   0.5000   0.5000    1.5811662    1.5799070    1.5816903   1
    4  354.8582726  313.7178293  632.2039318   0.5000   0.5000   0.5000    1.5811662    1.5799070    1.5816903   1
    4  356.5278601  312.4759348  632.8665056   0.5000   0.5000   0.5000    1.5811662    1.5799070    1.5816903   1
    4  357.5194923  311.1725327  634.2757126   0.5000   0.5000   0.5000    1.5811662    1.5799070    1.5816903   1
    4  357.4688925  309.0299601  635.0836406   0.5000   0.5000   0.5000    1.5811662    1.5799070    1.5816903   1
    4  356.5122133  307.4653396  635.1798317   0.5000   0.5000   0.5000    1.5811662    1.5799070    1.5816903   1
    4  354.8185317  307.4486839  635.8925078   0.5000   0.5000   0.5000    1.5811662    1.5799070    1.5816903   1
    4  352.8499356  307.8549866  637.0407278   0.5000   0.5000   0.5000    1.5811662    1.5799070    1.5816903   1
    4  351.6034393  308.6291274  638.3128571   0.5000   0.5000   0.5000    1.5811662    1.5799070    1.5816903   1
    4  351.4128710  310.2142231  639.6704848   0.5000   0.5000   0.5000    1.5811662    1.5799070    1.5816903   1
    4  350.8938129  311.2311640  640.6176458   0.5000   0.5000   0.5000    1.5811662    1.5799070    1.5816903   1
    4  349.3723371  311.6320477  640.8016601   0.5000   0.5000   0.5000    1.5811662    1.5799070    1.5816903   1
    4  347.5573527  312.5878645  640.3836175   0.5000   0.5000   0.5000    1.5811662    1.5799070    1.5816903   1
    5  -23.7620981    5.1696206  529.2390655   0.5000   0.5000   0.5000    1.5811662    1.5799070    1.5816903   0
    5  -21.4852968    5.9325491  530.0165555   0.5000   0.5000   0.5000    1.5811662    1.5799070    1.5816903   0
    5  -19.3925877    7.1386616  531.0706500   0.5000   0.5000   0.5000    1.5811662    1.5799070    1.5816903   0
    5  -17.8343387    8.9488163  532.4314461   0.5000   0.5000   0.5000    1.5811662    1.5799070    1.5816903   0
    5  -16.6362607   11.1352367  533.2830520   0.5000   0.5000   0.5000    1.5811662    1.5799070    1.5816903   0
    5  -14.8235497   12.6854560  533.7493658   0.5000   0.5000   0.5000    1.5811662    1.5799070    1.5816903   0
    5  -12.5633411   12.8230304  534.7735075   0.5000   0.5000   0.5000    1.5811662    1.5799070    1.5816903   0
    5  -11.2013961   12.2758061  536.4205155   0.5000   0.5000   0.5000    1.5811662    1.5799070    1.5816903   0
    5  -10.3840287   11.9192020  538.0277596   0.5000   0.5000   0.5000    1.5811662    1.5799070    1.5816903   0
    5   -9.2363105   11.6060776  539.3943819   0.5000   0.5000   0.5000    1.5811662    1.5799070    1.5816903   0
    5   -8.2287100   11.2923936  540.8176429   0.5000   0.5000   0.5000    1.5811662    1.5799070    1.5816903   0
    5   -7.0886012   11.3538964  542.0933933   0.5000   0.5000   0.5000    1.5811662    1.5799070    1.5816903   0
    5   -5.8190060   12.0278484  542.7804532   0.5000   0.5000   0.5000    1.5811662    1.5799070    1.5816903   0
    5   -5.3792487   13.6924283  542.6065728   0.5000   0.5000   0.5000    1.5811662    1.5799070    1.5816903   0
    5   -4.7067833   15.4784177  542.0644299   0.5000   0.5000   0.5000    1.5811662    1.5799070    1.5816903   0
    5   -2.5006341   16.4221735  542.0542156   0.5000   0.5000   0.5000    1.5811662    1.5799070    1.5816903   0
    5    0.2832331   17.1792127  542.5993682   0.5000   0.5000   0.5000    1.5811662    1.5799070    1.5816903   0
    5    3.0174001   18.0050233  543.4157585   0.5000   0.5000   0.5000    1.5811662    1.5799070    1.5816903   0
    5    5.6702958   18.6281426  544.1558701   0.5000   0.5000   0.5000    1.5811662    1.5799070    1.5816903   0
    5    7.9663401   19.4251706  544.6386127   0.5000   0.5000   0.5000    1.5811662    1.5799070    1.5816903   0
    5   10.0566093   20.8845284  545.0062363   0.5000   0.5000   0.5000    1.5811662    1.5799070    1.5816903   0
    5   12.1231454   22.1689951  545.4676070   0.5000   0.5000   0.5000    1.5811662    1.5799070    1.5816903   0
    5   14.2410831   22.4218834  546.1186113   0.5000   0.5000   0.5000    1.5811662    1.5799070    1.5816903   0
    5   16.3253207   22.4103230  546.8018500   0.5000   0.5000   0.5000    1.5811662    1.5799070    1.5816903   0
    5   18.2430456   23.0007351  547.5798391   0.5000   0.5000   0.5000    1.5811662    1.5799070    1.5816903   0
    5   19.8681747   24.3541917  548.1929217   0.5000   0.5000   0.5000    1.5811662    1.5799070    1.5816903   0
    5   21.5896379   25.8594718  548.4186929   0.5000   0.5000   0.5000    1.5811662    1.5799070    1.5816903   0
    5   24.0282928   26.5649672  548.7232653   0.5000   0.5000   0.5000    1.5811662    1.5799070    1.5816903   0
    5   26.5953989   26.6301989  549.0492413   0.5000   0.5000   0.5000    1.5811662    1.5799070    1.5816903   0
    5   28.8401345   27.2267007  549.4349831   0.5000   0.5000   0.5000    1.5811662    1.5799070    1.5816903   0
    5   30.5889106   28.9033108  549.9245859   0.5000   0.5000   0.5000    1.5811662    1.5799070    1.5816903   0
    5   31.3828657   31.1106315  550.2553330   0.5000   0.5000   0.5000    1.5811662    1.5799070    1.5816903   0
    5   31.8011806   33.4145063  550.7311715   0.5000   0.5000   0.5000    1.5811662    1.5799070    1.5816903   0
    5   32.5180791   35.6837436  551.9607669   0.5000   0.5000   0.5000    1.5811662    1.5799070    1.5816903   0
    5   33.0189407   37.6853425  553.5600513   0.5000   0.5000   0.5000    1.5811662    1.5799070    1.5816903   0
    5   33.1484545   39.5343044  554.4395235   0.5000   0.5000   0.5000    1.5811662    1.5799070    1.5816903   0
    5   34.0321316   41.5622050  554.6435174   0.5000   0.5000   0.5000    1.5811662    1.5799070    1.5816903   0
    5   35.8886704   43.5647813  555.1400143   0.5000   0.5000   0.5000    1.5811662    1.5799070    1.5816903   0
    5   37.3240983   44.8017816  556.2845496   0.5000   0.5000   0.5000    1.5811662    1.5799070    1.5816903   0
    5   37.8175587   45.1863561  556.1583000   0.5000   0.5000   0.5000    1.5811662    1.5799070    1.5816903   0
    5   38.2881387   45.9742418  554.6384445   0.5000   0.5000   0.5000    1.5811662    1.5799070    1.5816903   0
    5   38.8765417   48.2380915  554.3329278   0.5000   0.5000   0.5000    1.5811662    1.5799070    1.5816903   0
    5   40.1908171   50.5733395  554.9301800   0.5000   0.5000   0.5000    1.5811662    1.5799070    1.5816903   0
    5   42.8610574   51.4921969  555.1336797   0.5000   0.5000   0.5000    1.5811662    1.5799070    1.5816903   0
    5   45.6785303   51.8622491  555.4177650   0.5000   0.5000   0.5000    1.5811662    1.5799070    1.5816903   0
    5   47.7551272   52.6972543  555.9556064   0.5000   0.5000   0.5000    1.5811662    1.5799070    1.5816903   0
    5   48.5742599   54.3078692  556.5538568   0.5000   0.5000   0.5000    1.5811662    1.5799070    1.5816903   0
    5   49.0448207   55.5089471  557.1536321   0.5000   0.5000   0.5000    1.5811662    1.5799070    1.5816903   0
    5   50.6450078   55.8903092  557.5268736   0.5000   0.5000   0.5000    1.5811662    1.5799070    1.5816903   0
    5   52.7097165   57.0543394  557.7405273   0.5000   0.5000   0.5000    1.5811662    1.5799070    1.5816903   0
    5   54.2552772   59.0651475  557.8825827   0.5000   0.5000   0.5000    1.5811662    1.5799070    1.5816903   0
    5   55.0653835   61.2391105  558.1991817   0.5000   0.5000   0.5000    1.5811662    1.5799070    1.5816903   0
    5   55.7113296   63.4415028  558.9521933   0.5000   0.5000   0.5000    1.5811662    1.5799070    1.5816903   0
    5   56.4189372   65.8082703  559.6800229   0.5000   0.5000   0.5000    1.5811662    1.5799070    1.5816903   0
    5   56.8990485   68.3933806  560.2512448   0.5000   0.5000   0.5000    1.5811662    1.5799070    1.5816903   0
    5   57.5304701   70.8274574  560.9390145   0.5000   0.5000   0.5000    1.5811662    1.5799070    1.5816903   0
    5   58.3679881   72.9983263  561.7408397   0.5000   0.5000   0.5000    1.5811662    1.5799070    1.5816903   0
    5   58.7498149   75.0386751  562.8358191   0.5000   0.5000   0.5000    1.5811662    1.5799070    1.5816903   0
    5   59.0982838   76.8563916  564.4045310   0.5000   0.5000   0.5000    1.5811662    1.5799070    1.5816903   0
    5   60.0257208   78.3678973  565.9774346   0.5000   0.5000   0.5000    1.5811662    1.5799070    1.5816903   0
    5   60.8840427   80.0268194  567.0702090   0.5000   0.5000   0.5000    1.5811662    1.5799070    1.5816903   0
    5   61.5486410   82.1576463  567.8687030   0.5000   0.5000   0.5000    1.5811662    1.5799070    1.5816903   0
    5   62.2479895   84.4521134  568.6855497   0.5000   0.5000   0.5000    1.5811662    1.5799070    1.5816903   0
    5   62.9414687   86.6184112  569.4578512   0.5000   0.5000   0.5000    1.5811662    1.5799070    1.5816903   0
    5   63.5946098   88.6477992  570.1855303   0.5000   0.5000   0.5000    1.5811662    1.5799070    1.5816903   0
    5   64.5398439   90.3655296  571.6011602   0.5000   0.5000   0.5000    1.5811662    1.5799070    1.5816903   0
    5   65.4320286   92.0625058  573.6730031   0.5000   0.5000   0.5000    1.5811662    1.5799070    1.5816903   0
    5   65.2336416   94.1103997  575.2769962   0.5000   0.5000   0.5000    1.5811662    1.5799070    1.5816903   0
    5   65.0367998   95.6398971  575.6265540   0.5000   0.5000   0.5000    1.5811662    1.5799070    1.5816903   0
    5   66.2738770   96.6312262  575.1531337   0.5000   0.5000   0.5000    1.5811662    1.5799070    1.5816903   0
    5   68.0917954   98.0119173  574.9525985   0.5000   0.5000   0.5000    1.5811662    1.5799070    1.5816903   0
    5   69.9275563   99.1348331  574.8925189   0.5000   0.5000   0.5000    1.5811662    1.5799070    1.5816903   0
    5   72.2057127   99.9503717  574.8933118   0.5000   0.5000   0.5000    1.5811662    1.5799070    1.5816903   0
    5   74.4857005  101.0824907  574.8551428   0.5000   0.5000   0.5000    1.5811662    1.5799070    1.5816903   0
    5   76.7726206  101.9966568  574.8219931   0.5000   0.5000   0.5000    1.5811662    1.5799070    1.5816903   0
    5   79.1191073  102.6974751  574.9650521   0.5000   0.5000   0.5000    1.5811662    1.5799070    1.5816903   0
    5   80.9605838  103.4003250  574.4527375   0.5000   0.5000   0.5000    1.5811662    1.5799070    1.5816903   0
    5   82.8346257  104.6418370  574.0561100   0.5000   0.5000   0.5000    1.5811662    1.5799070    1.5816903   0
    5   85.1654966  106.9766666  574.6874000   0.5000   0.5000   0.5000    1.5811662    1.5799070    1.5816903   0
    6  370.8425529  113.9439943   96.9327914  -0.5000  -0.5000   0.5000   -1.5822735   -1.5837374    1.5825672   1
    6  370.4510263  112.7816580   95.9108461  -0.5000  -0.5000   0.5000   -1.5822735   -1.5837374    1.5825672   1
    6  369.8819244  111.5763904   94.3088723  -0.5000  -0.5000   0.5000   -1.5822735   -1.5837374    1.5825672   1
    6  368.8167947  111.1884822   93.3498192  -0.5000  -0.5000   0.5000   -1.5822735   -1.5837374    1.5825672   1
    6  367.2258185  111.4325660   92.3022278  -0.5000  -0.5000   0.5000   -1.5822735   -1.5837374    1.5825672   1
    6  366.0013549  112.2003770   90.6585342  -0.5000  -0.5000   0.5000   -1.5822735   -1.5837374    1.5825672   1
    6  364.9054268  113.7647296   89.5278133  -0.5000  -0.5000   0.5000   -1.5822735   -1.5837374    1.5825672   1
    6  363.5664367  115.4172638   89.8087087  -0.5000  -0.5000   0.5000   -1.5822735   -1.5837374    1.5825672   1
    6  362.6932910  116.8327096   91.1019851  -0.5000  -0.5000   0.5000   -1.5822735   -1.5837374    1.5825672   1
    6  362.2547275  118.7780970   92.3130094  -0.5000  -0.5000   0.5000   -1.5822735   -1.5837374    1.5825672   1
    6  361.2006950  120.7343511   92.7946831  -0.5000  -0.5000   0.5000   -1.5822735   -1.5837374    1.5825672   1
    6  359.7171668  122.4894375   92.6229147  -0.5000  -0.5000   0.5000   -1.5822735   -1.5837374    1.5825672   1
    6  359.0867339  124.6465540   92.8423294  -0.5000  -0.5000   0.5000   -1.5822735   -1.5837374    1.5825672   1
    6  359.3247186  126.2256865   94.2142409  -0.5000  -0.5000   0.5000   -1.5822735   -1.5837374    1.5825672   1
    6  359.7346010  126.8359090   96.1983257  -0.5000  -0.5000   0.5000   -1.5822735   -1.5837374    1.5825672   1
    6  360.2939700  127.5300389   98.2804444  -0.5000  -0.5000   0.5000   -1.5822735   -1.5837374    1.5825672   1
    6  361.5291590  128.2133585  100.0454861  -0.5000  -0.5000   0.5000   -1.5822735   -1.5837374    1.5825672   1
    6  363.1694986  127.8045334  101.4101108  -0.5000  -0.5000   0.5000   -1.5822735   -1.5837374    1.5825672   1
    6  364.5090802  126.2681813  102.1980353  -0.5000  -0.5000   0.5000   -1.5822735   -1.5837374    1.5825672   1
    6  365.9180662  124.6655297  102.2440835  -0.5000  -0.5000   0.5000   -1.5822735   -1.5837374    1.5825672   1
    6  367.7439357  123.3581131  102.3754230  -0.5000  -0.5000   0.5000   -1.5822735   -1.5837374    1.5825672   1
    6  369.3663805  121.6458046  102.7741256  -0.5000  -0.5000   0.5000   -1.5822735   -1.5837374    1.5825672   1
    6  370.2646994  119.2355756  102.8237148  -0.5000  -0.5000   0.5000   -1.5822735   -1.5837374    1.5825672   1
    6  370.4316608  116.9651332  101.9084714  -0.5000  -0.5000   0.5000   -1.5822735   -1.5837374    1.5825672   1
    6  370.3822397  115.7235825   99.9543476  -0.5000  -0.5000   0.5000   -1.5822735   -1.5837374    1.5825672   1
    6  370.5520084  115.1451368   98.3588524  -0.5000  -0.5000   0.5000   -1.5822735   -1.5837374    1.5825672   1
    6  370.8425529  113.9439943   96.9327913  -0.5000  -0.5000   0.5000   -1.5822735   -1.5837374    1.5825672   1
    7  309.2353095  344.6206071   13.1137234   0.5000   0.5000   0.5000    1.5811662    1.5799070    1.5816903   0
    7  307.7212972  343.5809662   14.3271703   0.5000   0.5000   0.5000    1.5811662    1.5799070    1.5816903   0
    7  306.1958480  342.1541800   15.6629015   0.5000   0.5000   0.5000    1.5811662    1.5799070    1.5816903   0
    7  304.6437574  340.7360389   17.1040253   0.5000   0.5000   0.5000    1.5811662    1.5799070    1.5816903   0
    7  303.7549677  340.1312852   18.8435443   0.5000   0.5000   0.5000    1.5811662    1.5799070    1.5816903   0
    7  303.6267861  339.7053715   20.8782185   0.5000   0.5000   0.5000    1.5811662    1.5799070    1.5816903   0
    7  302.5958055  338.6818058   22.2523540   0.5000   0.5000   0.5000    1.5811662    1.5799070    1.5816903   0
    7  301.5447892  338.3681413   22.8298189   0.5000   0.5000   0.5000    1.5811662    1.5799070    1.5816903   0
    7  302.0369799  339.5696943   23.9296263   0.5000   0.5000   0.5000    1.5811662    1.5799070    1.5816903   0
    7  301.9619606  341.2307447   25.2855128   0.5000   0.5000   0.5000    1.5811662    1.5799070    1.5816903   0
    7  301.5302188  343.2077765   26.2336343   0.5000   0.5000   0.5000    1.5811662    1.5799070    1.5816903   0
    7  302.0598759  345.7461567   27.1119681   0.5000   0.5000   0.5000    1.5811662    1.5799070    1.5816903   0
    7  301.9647094  348.4233281   27.5985614   0.5000   0.5000   0.5000    1.5811662    1.5799070    1.5816903   0
    7  301.1513921  350.9250297   27.3033148   0.5000   0.5000   0.5000    1.5811662    1.5799070    1.5816903   0
    7  300.8518499  353.0615402   26.4446068   0.5000   0.5000   0.5000    1.5811662    1.5799070    1.5816903   0
    7  300.9061167  354.2983223   25.1909706   0.5000   0.5000   0.5000    1.5811662    1.5799070    1.5816903   0
    7  300.5484107  354.3565119   23.0920697   0.5000   0.5000   0.5000    1.5811662    1.5799070    1.5816903   0
    8  292.2122185  613.6064189  261.0064684  -0.5000  -0.5000   0.5000   -1.5822735   -1.5837374    1.5825672   0
    8  289.9867068  612.9600200  263.9737009  -0.5000  -0.5000   0.5000   -1.5822735   -1.5837374    1.5825672   0
    8  288.0750274  613.6015046  265.9531536  -0.5000  -0.5000   0.5000   -1.5822735   -1.5837374    1.5825672   0
    8  287.2943443  614.3714301  267.7476310  -0.5000  -0.5000   0.5000   -1.5822735   -1.5837374    1.5825672   0
    8  286.9726627  614.8004050  270.0855425  -0.5000  -0.5000   0.5000   -1.5822735   -1.5837374    1.5825672   0
    8  287.3734216  614.8787447  272.5865099  -0.5000  -0.5000   0.5000   -1.5822735   -1.5837374    1.5825672   0
    8  288.8696074  614.6874566  274.7724773  -0.5000  -0.5000   0.5000   -1.5822735   -1.5837374    1.5825672   0
    8  290.1003264  614.7834074  276.8963506  -0.5000  -0.5000   0.5000   -1.5822735   -1.5837374    1.5825672   0
    8  290.7326365  615.1765208  279.0625451  -0.5000  -0.5000   0.5000   -1.5822735   -1.5837374    1.5825672   0