ITEM: TIMESTEP
0
ITEM: NUMBER OF ATOMS
8500
ITEM: BOX BOUNDS pp pp pp 
0.0 695.907822
0.0 696.538039
0.0 698.092100
ITEM: ATOMS id x y z tbx tby tbz sbx sby sbz loop
    0  153.7795322  454.5268518  302.3275080  -0.5000  -0.5000   0.5000   -1.5822437   -1.5834491    1.5824569   0
    0  149.7967507  459.6192877  298.6904026  -0.5000  -0.5000   0.5000   -1.5822437   -1.5834491    1.5824569   0
    0  148.8087251  462.2209084  297.9528264  -0.5000  -0.5000   0.5000   -1.5822437   -1.5834491    1.5824569   0
    0  149.0336570  463.1666231  299.5296152  -0.5000  -0.5000   0.5000   -1.5822437   -1.5834491    1.5824569   0
    0  148.9521769  464.1599947  301.8659931  -0.5000  -0.5000   0.5000   -1.5822437   -1.5834491    1.5824569   0
    0  148.5525244  465.4686113  303.6284835  -0.5000  -0.5000   0.5000   -1.5822437   -1.5834491    1.5824569   0
    0  147.7084032  466.5598636  305.3149174  -0.5000  -0.5000   0.5000   -1.5822437   -1.5834491    1.5824569   0
    0  146.3947698  468.3612515  306.9447910  -0.5000  -0.5000   0.5000   -1.5822437   -1.5834491    1.5824569   0
    0  145.7001093  469.6688591  307.2789801  -0.5000  -0.5000   0.5000   -1.5822437   -1.5834491    1.5824569   0
    0  146.7670240  468.2077347  306.9531151  -0.5000  -0.5000   0.5000   -1.5822437   -1.5834491    1.5824569   0
    0  148.9505423  466.4795513  307.3684430  -0.5000  -0.5000   0.5000   -1.5822437   -1.5834491    1.5824569   0
    0  151.0842013  465.9600701  308.2688682  -0.5000  -0.5000   0.5000   -1.5822437   -1.5834491    1.5824569   0
    0  152.8629843  465.2195017  309.0173418  -0.5000  -0.5000   0.5000   -1.5822437   -1.5834491    1.5824569   0
    0  154.3729519  464.2311578  309.9717385  -0.5000  -0.5000   0.5000   -1.5822437   -1.5834491    1.5824569   0
    0  155.6573994  463.2175811  311.2745662  -0.5000  -0.5000   0.5000   -1.5822437   -1.5834491    1.5824569   0
    0  156.8931289  462.0200366  312.1717457  -0.5000  -0.5000   0.5000   -1.5822437   -1.5834491    1.5824569   0
    0  157.8044444  460.4087437  312.0221309  -0.5000  -0.5000   0.5000   -1.5822437   -1.5834491    1.5824569   0
    0  158.4839387  458.7662494  310.9444033  -0.5000  -0.5000   0.5000   -1.5822437   -1.5834491    1.5824569   0
    0  158.8801370  457.6945806  309.4742578  -0.5000  -0.5000   0.5000   -1.5822437   -1.5834491    1.5824569   0
    0  158.4276258  456.7445326  308.4036245  -0.5000  -0.5000   0.5000   -1.5822437   -1.5834491    1.5824569   0
    0  156.9268774  455.6888968  306.6470184  -0.5000  -0.5000   0.5000   -1.5822437   -1.5834491    1.5824569   0
    0  153.7795322  454.5268518  302.3275080  -0.5000  -0.5000   0.5000   -1.5822437   -1.5834491    1.5824569   0
    1  234.6875000  534.0471667   21.4054500   0.5000   0.5000   0.5000    1.5814128    1.5799885    1.5818669   0
    1  233.9229631  534.1247979   19.3550965   0.5000   0.5000   0.5000    1.5814128    1.5799885    1.5818669   0
    1  233.5356154  535.3600179   17.8246277   0.5000   0.5000   0.5000    1.5814128    1.5799885    1.5818669   0
    1  233.3465418  538.1071444   17.3504515   0.5000   0.5000   0.5000    1.5814128    1.5799885    1.5818669   0
    1  233.3545654  541.1075106   17.7608730   0.5000   0.5000   0.5000    1.5814128    1.5799885    1.5818669   0
    1  233.9455264  543.3735652   18.7778108   0.5000   0.5000   0.5000    1.5814128    1.5799885    1.5818669   0
    1  234.5446641  544.6208535   20.6941703   0.5000   0.5000   0.5000    1.5814128    1.5799885    1.5818669   0
    1  234.5004470  544.6576081   23.3190229   0.5000   0.5000   0.5000    1.5814128    1.5799885    1.5818669   0
    1  234.1719805  544.0395343   25.9148397   0.5000   0.5000   0.5000    1.5814128    1.5799885    1.5818669   0
    1  233.4773301  542.9903195   27.9714688   0.5000   0.5000   0.5000    1.5814128    1.5799885    1.5818669   0
    1  231.7491489  541.0854880   29.3638256   0.5000   0.5000   0.5000    1.5814128    1.5799885    1.5818669   0
    2  596.3742945  600.4975850  507.2132384   0.5000   0.5000  -0.5000    1.5822437    1.5834491   -1.5824569   0
    2  592.9189983  604.0134915  510.0437328   0.5000   0.5000  -0.5000    1.5822437    1.5834491   -1.5824569   0
    2  591.1592638  606.0179174  511.4698573   0.5000   0.5000  -0.5000    1.5822437    1.5834491   -1.5824569   0
    2  591.1332837  606.7366233  512.7371758   0.5000   0.5000  -0.5000    1.5822437    1.5834491   -1.5824569   0
    2  591.3980995  606.5706618  514.2800356   0.5000   0.5000  -0.5000    1.5822437    1.5834491   -1.5824569   0
    2  590.9265595  606.7923621  515.6822787   0.5000   0.5000  -0.5000    1.5822437    1.5834491   -1.5824569   0
    2  590.7628474  607.5549199  517.3453412   0.5000   0.5000  -0.5000    1.5822437    1.5834491   -1.5824569   0
    2  591.4229990  608.1742665  519.2728538   0.5000   0.5000  -0.5000    1.5822437    1.5834491   -1.5824569   0
    2  591.6282713  608.9790038  521.1784049   0.5000   0.5000  -0.5000    1.5822437    1.5834491   -1.5824569   0
    2  590.7217893  610.0723406  522.9966639   0.5000   0.5000  -0.5000    1.5822437    1.5834491   -1.5824569   0
    2  589.8415855  611.3907681  524.8905573   0.5000   0.5000  -0.5000    1.5822437    1.5834491   -1.5824569   0
    2  589.8242777  613.1035832  526.7986140   0.5000   0.5000  -0.5000    1.5822437    1.5834491   -1.5824569   0
    2  590.7482849  614.2801404  528.3732278   0.5000   0.5000  -0.5000    1.5822437    1.5834491   -1.5824569   0
    2  592.5261117  614.3737611  529.8456974   0.5000   0.5000  -0.5000    1.5822437    1.5834491   -1.5824569   0
    2  594.0472209  615.1746843  530.7632544   0.5000   0.5000  -0.5000    1.5822437    1.5834491   -1.5824569   0
    2  594.9128781  617.0561940  531.0983929   0.5000   0.5000  -0.5000    1.5822437    1.5834491   -1.5824569   0
    2  595.9845644  618.2785646  531.2815578   0.5000   0.5000  -0.5000    1.5822437    1.5834491   -1.5824569   0
    2  597.0420223  619.5627067  531.5632190   0.5000   0.5000  -0.5000    1.5822437    1.5834491   -1.5824569   0
    2  597.4686666  622.5723889  533.3986111   0.5000   0.5000  -0.5000    1.5822437    1.5834491   -1.5824569   0
    3  605.9784184  191.0177351   78.0495549   0.5000   0.5000  -0.5000    1.5822437    1.5834491   -1.5824569   1
    3  605.6530972  191.0291735   78.6878269   0.5000   0.5000  -0.5000    1.5822437    1.5834491   -1.5824569   1
    3  604.8257897  191.9120140   79.1597670   0.5000   0.5000  -0.5000    1.5822437    1.5834491   -1.5824569   1
    3  604.4921443  193.8185079   80.1016803   0.5000   0.5000  -0.5000    1.5822437    1.5834491   -1.5824569   1
    3  605.1000644  195.1170464   81.8677816   0.5000   0.5000  -0.5000    1.5822437    1.5834491   -1.5824569   1
    3  605.8226532  195.7693053   83.9946573   0.5000   0.5000  -0.5000    1.5822437    1.5834491   -1.5824569   1
    3  606.1613691  197.1549968   85.9390736   0.5000   0.5000  -0.5000    1.5822437    1.5834491   -1.5824569   1
    3  606.5211582  199.1997580   87.2199686   0.5000   0.5000  -0.5000    1.5822437    1.5834491   -1.5824569   1
    3  607.4556187  200.6944639   88.2095933   0.5000   0.5000  -0.5000    1.5822437    1.5834491   -1.5824569   1
    3  608.6135644  201.8175646   89.4763932   0.5000   0.5000  -0.5000    1.5822437    1.5834491   -1.5824569   1
    3  609.6525984  203.0834644   90.9314893   0.5000   0.5000  -0.5000    1.5822437    1.5834491   -1.5824569   1
    3  610.1315130  204.8982464   91.9064196   0.5000   0.5000  -0.5000    1.5822437    1.5834491   -1.5824569   1
    3  610.3346475  206.8734544   92.6129776   0.5000   0.5000  -0.5000    1.5822437    1.5834491   -1.5824569   1
    3  610.8233755  208.9818965   93.3927260   0.5000   0.5000  -0.5000    1.5822437    1.5834491   -1.5824569   1
    3  610.9731206  211.7442006   94.0296841   0.5000   0.5000  -0.5000    1.5822437    1.5834491   -1.5824569   1
    3  610.6541050  214.4921411   94.7276761   0.5000   0.5000  -0.5000    1.5822437    1.5834491   -1.5824569   1
    3  610.1073729  216.8096135   94.9089997   0.5000   0.5000  -0.5000    1.5822437    1.5834491   -1.5824569   1
    3  609.0261473  218.4415906   94.2518163   0.5000   0.5000  -0.5000    1.5822437    1.5834491   -1.5824569   1
    3  607.9076309  219.2365405   92.7401990   0.5000   0.5000  -0.5000    1.5822437    1.5834491   -1.5824569   1
    3  606.7796551  219.3867881   90.7881513   0.5000   0.5000  -0.5000    1.5822437    1.5834491   -1.5824569   1
    3  605.0204550  219.7378788   89.6407021   0.5000   0.5000  -0.5000    1.5822437    1.5834491   -1.5824569   1
    3  603.4449220  220.5287518   88.7525606   0.5000   0.5000  -0.5000    1.5822437    1.5834491   -1.5824569   1
    3  602.2856976  220.4665328   87.4597665   0.5000   0.5000  -0.5000    1.5822437    1.5834491   -1.5824569   1
    3  601.4196827  219.7612372   85.6106341   0.5000   0.5000  -0.5000    1.5822437    1.5834491   -1.5824569   1
    3  601.2719914  218.9823969   83.1068459   0.5000   0.5000  -0.5000    1.5822437    1.5834491   -1.5824569   1
    3  600.8239813  217.8386712   81.5631726   0.5000   0.5000  -0.5000    1.5822437    1.5834491   -1.5824569   1
    3  599.4777556  216.9668361   81.1413165   0.5000   0.5000  -0.5000    1.5822437    1.5834491   -1.5824569   1
    3  598.1955577  216.5099166   79.9923635   0.5000   0.5000  -0.5000    1.5822437    1.5834491   -1.5824569   1
    3  597.5326040  215.2915189   78.2176741   0.5000   0.5000  -0.5000    1.5822437    1.5834491   -1.5824569   1
    3  597.2911573  212.9533950   76.9256260   0.5000   0.5000  -0.5000    1.5822437    1.5834491   -1.5824569   1
    3  596.7166388  210.7160491   76.3445355   0.5000   0.5000  -0.5000    1.5822437    1.5834491   -1.5824569   1
    3  595.4686668  209.4288483   75.5446010   0.5000   0.5000  -0.5000    1.5822437    1.5834491   -1.5824569   1
    3  593.9338051  208.7125046   73.7868366   0.5000   0.5000  -0.5000    1.5822437    1.5834491   -1.5824569   1
    3  592.8614111  207.7008493   72.1033948   0.5000   0.5000  -0.5000    1.5822437    1.5834491   -1.5824569   1
    3  592.7704508  206.1137407   70.7745551   0.5000   0.5000  -0.5000    1.5822437    1.5834491   -1.5824569   1
    3  593.1058439  204.4198252   70.0451769   0.5000   0.5000  -0.5000    1.5822437    1.5834491   -1.5824569   1
    3  593.9305604  202.7355745   70.5172636   0.5000   0.5000  -0.5000    1.5822437    1.5834491   -1.5824569   1
    3  595.5179034  201.1474324   71.3306739   0.5000   0.5000  -0.5000    1.5822437    1.5834491   -1.5824569   1
    3  596.7485020  199.7515616   72.2518521   0.5000   0.5000  -0.5000    1.5822437    1.5834491   -1.5824569   1
    3  597.0805551  198.1057877   73.1006387   0.5000   0.5000  -0.5000    1.5822437    1.5834491   -1.5824569   1
    3  597.5068876  196.5260404   74.0018202   0.5000   0.5000  -0.5000    1.5822437    1.5834491   -1.5824569   1
    3  598.5713712  195.5112397   75.7569564   0.5000   0.5000  -0.5000    1.5822437    1.5834491   -1.5824569   1
    3  600.1416576  194.7097832   77.4739412   0.5000   0.5000  -0.5000    1.5822437    1.5834491   -1.5824569   1
    3  601.9073049  193.6277080   78.2897437   0.5000   0.5000  -0.5000    1.5822437    1.5834491   -1.5824569   1
    3  603.5690885  192.4434675   78.3046340   0.5000   0.5000  -0.5000    1.5822437    1.5834491   -1.5824569   1
    3  605.9784184  191.0177351   78.0495550   0.5000   0.5000  -0.5000    1.5822437    1.5834491   -1.5824569   1
    4  530.2021513  288.2586456  679.1735159  -1.0000  -0.0000  -0.0000   -3.1642828    0.0009000    0.0013087   1
    4  530.4170667  289.3867145  678.1447668  -1.0000  -0.0000  -0.0000   -3.1642828    0.0009000    0.0013087   1
    4  530.3575912  290.4081384  676.1604522  -1.0000  -0.0000  -0.0000   -3.1642828    0.0009000    0.0013087   1
    4  530.2175722  290.2742525  674.0866523  -1.0000  -0.0000  -0.0000   -3.1642828    0.0009000    0.0013087   1
    4  530.3290505  289.2029402  672.2849978  -1.0000  -0.0000  -0.0000   -3.1642828    0.0009000    0.0013087   1
    4  530.2377840  287.4263958  671.2458327  -1.0000  -0.0000  -0.0000   -3.1642828    0.0009000    0.0013087   1
    4  529.7574063  285.4597595  671.5207452  -1.0000  -0.0000  -0.0000   -3.1642828    0.0009000    0.0013087   1
    4  529.5804704  283.7669742  672.7521805  -1.0000  -0.0000  -0.0000   -3.1642828    0.0009000    0.0013087   1
    4  529.7078258  282.2673058  673.8613476  -1.0000  -0.0000  -0.0000   -3.1642828    0.0009000    0.0013087   1
    4  530.1039533  281.5482012  675.0742577  -1.0000  -0.0000  -0.0000   -3.1642828    0.0009000    0.0013087   1
    4  530.5460717  282.3723148  676.8822960  -1.0000  -0.0000  -0.0000   -3.1642828    0.0009000    0.0013087   1
    4  530.8756639  284.2403956  678.7151480  -1.0000  -0.0000  -0.0000   -3.1642828    0.0009000    0.0013087   1
    4  530.7860618  286.0178810  679.6945022  -1.0000  -0.0000  -0.0000   -3.1642828    0.0009000    0.0013087   1
    4  530.3859650  287.0448220  679.7009362  -1.0000  -0.0000  -0.0000   -3.1642828    0.0009000    0.0013087   1
    4  530.2021513  288.2586456  679.1735159  -1.0000  -0.0000  -0.0000   -3.1642828    0.0009000    0.0013087   1
    5  640.4079000  269.6840334  633.6369666  -0.5000   0.5000   0.5000   -1.5828699    1.5808885    1.5831755   0
    5  639.3778532  270.7963979  635.4354603  -0.5000   0.5000   0.5000   -1.5828699    1.5808885    1.5831755   0
    5  637.7548798  272.0027301  636.5684768  -0.5000   0.5000   0.5000   -1.5828699    1.5808885    1.5831755   0
    5  636.1785933  272.9950586  637.0940584  -0.5000   0.5000   0.5000   -1.5828699    1.5808885    1.5831755   0
    5  636.1574972  273.9053207  637.9531776  -0.5000   0.5000   0.5000   -1.5828699    1.5808885    1.5831755   0
    5  636.5118741  275.1530192  639.6498555  -0.5000   0.5000   0.5000   -1.5828699    1.5808885    1.5831755   0
    5  635.6243916  276.5626929  641.4439941  -0.5000   0.5000   0.5000   -1.5828699    1.5808885    1.5831755   0
    5  634.0604371  278.0294527  642.9819773  -0.5000   0.5000   0.5000   -1.5828699    1.5808885    1.5831755   0
    5  632.4023241  279.7822966  644.6359219  -0.5000   0.5000   0.5000   -1.5828699    1.5808885    1.5831755   0
    5  630.6893203  281.2681658  645.6860511  -0.5000   0.5000   0.5000   -1.5828699    1.5808885    1.5831755   0
    5  628.8083918  282.4967755  646.5939916  -0.5000   0.5000   0.5000   -1.5828699    1.5808885    1.5831755   0
    5  626.4147222  284.3235556  648.6837500  -0.5000   0.5000   0.5000   -1.5828699    1.5808885    1.5831755   0
    6  185.4114090  198.6046909  624.2630841   0.5000  -0.5000  -0.5000    1.5828699   -1.5808885   -1.5831755   0
    6  187.9528926  201.0447830  624.9104227   0.5000  -0.5000  -0.5000    1.5828699   -1.5808885   -1.5831755   0
    6  189.6955196  202.4113057  625.4758747   0.5000  -0.5000  -0.5000    1.5828699   -1.5808885   -1.5831755   0
    6  191.7750243  203.1664405  626.0338852   0.5000  -0.5000  -0.5000    1.5828699   -1.5808885   -1.5831755   0
    6  193.6901364  203.9141856  626.3710121   0.5000  -0.5000  -0.5000    1.5828699   -1.5808885   -1.5831755   0
    6  194.4490614  205.3823170  625.7180497   0.5000  -0.5000  -0.5000    1.5828699   -1.5808885   -1.5831755   0
    6  194.4253568  207.2000522  623.9731500   0.5000  -0.5000  -0.5000    1.5828699   -1.5808885   -1.5831755   0
    6  194.3431365  208.4241436  621.9342301   0.5000  -0.5000  -0.5000    1.5828699   -1.5808885   -1.5831755   0
    6  194.0693474  209.0055251  620.3200219   0.5000  -0.5000  -0.5000    1.5828699   -1.5808885   -1.5831755   0
    6  193.0046731  208.5256582  618.8522036   0.5000  -0.5000  -0.5000    1.5828699   -1.5808885   -1.5831755   0
    6  191.5731985  207.1628694  617.4859186   0.5000  -0.5000  -0.5000    1.5828699   -1.5808885   -1.5831755   0
    6  190.1904026  205.5086058  616.8436692   0.5000  -0.5000  -0.5000    1.5828699   -1.5808885   -1.5831755   0
    6  188.8563065  203.6851991  616.6106497   0.5000  -0.5000  -0.5000    1.5828699   -1.5808885   -1.5831755   0
    6  187.4802464  202.2400825  616.0574548   0.5000  -0.5000  -0.5000    1.5828699   -1.5808885   -1.5831755   0
    6  186.0305044  201.1248925  616.0708206   0.5000  -0.5000  -0.5000    1.5828699   -1.5808885   -1.5831755   0
    6  185.1076637  199.4994760  617.3385192   0.5000  -0.5000  -0.5000    1.5828699   -1.5808885   -1.5831755   0
    6  184.8698559  197.6199211  618.9165463   0.5000  -0.5000  -0.5000    1.5828699   -1.5808885   -1.5831755   0
    6  184.9737206  197.0880448  620.9924510   0.5000  -0.5000  -0.5000    1.5828699   -1.5808885   -1.5831755   0
    6  185.4114090  198.6046909  624.2630841   0.5000  -0.5000  -0.5000    1.5828699   -1.5808885   -1.5831755   0
    7  185.4114090  198.6046909  624.2630841   0.5000  -0.5000  -0.5000    1.5828699   -1.5808885   -1.5831755   0
    7  183.6180707  195.8325151  624.5137415   0.5000  -0.5000  -0.5000    1.5828699   -1.5808885   -1.5831755   0
    7  182.9726725  194.3351104  626.2013220   0.5000  -0.5000  -0.5000    1.5828699   -1.5808885   -1.5831755   0
    7  183.2241888  193.9835860  628.1927837   0.5000  -0.5000  -0.5000    1.5828699   -1.5808885   -1.5831755   0
    7  184.4863725  194.1675308  629.5829637   0.5000  -0.5000  -0.5000    1.5828699   -1.5808885   -1.5831755   0
    7  186.0733279  195.3332780  630.4100216   0.5000  -0.5000  -0.5000    1.5828699   -1.5808885   -1.5831755   0
    7  186.6672189  197.7173464  630.0588629   0.5000  -0.5000  -0.5000    1.5828699   -1.5808885   -1.5831755   0
    7  186.6198735  198.9475758  628.3974504   0.5000  -0.5000  -0.5000    1.5828699   -1.5808885   -1.5831755   0
    7  187.0065980  197.9834181  626.7616006   0.5000  -0.5000  -0.5000    1.5828699   -1.5808885   -1.5831755   0
    7  187.0783243  197.5109217  625.6039991   0.5000  -0.5000  -0.5000    1.5828699   -1.5808885   -1.5831755   0
    7  185.4114090  198.6046909  624.2630841   0.5000  -0.5000  -0.5000    1.5828699   -1.5808885   -1.5831755   0
    8  131.3258173  169.6249451  544.7184574   0.5000   0.5000  -0.5000    1.5822437    1.5834491   -1.5824569   0
    8  130.4120663  171.2296364  547.5032271   0.5000   0.5000  -0.5000    1.5822437    1.5834491   -1.5824569   0
    8  128.7383460  171.4591758  547.9274563   0.5000   0.5000  -0.5000    1.5822437    1.5834491   -1.5824569   0
    8  126.7372958  171.3635335  546.5347114   0.5000   0.5000  -0.5000    1.5822437    1.5834491   -1.5824569   0
    8  125.2216101  171.6960973  544.7959480   0.5000   0.5000  -0.5000    1.5822437    1.5834491   -1.5824569   0
    8  124.2025423  172.3769861  543.2265058   0.5000   0.5000  -0.5000    1.5822437    1.5834491   -1.5824569   0
    8  123.6220357  172.0935087  541.1229214   0.5000   0.5000  -0.5000    1.5822437    1.5834491   -1.5824569   0
    8  123.6848238  170.4133733  538.8555008   0.5000   0.5000  -0.5000    1.5822437    1.5834491   -1.5824569   0
    8  124.5364818  168.8924241  537.9036641   0.5000   0.5000  -0.5000    1.5822437    1.5834491   -1.5824569   0
    8  126.1147806  168.0797173  538.4087712   0.5000   0.5000  -0.5000    1.5822437    1.5834491   -1.5824569   0
    8  128.4479754  167.8260323  539.3572268   0.5000   0.5000  -0.5000    1.5822437    1.5834491   -1.5824569   0
    8  130.7137531  168.7170016  540.2108679   0.5000   0.5000  -0.5000    1.5822437    1.5834491   -1.5824569   0
    8  131.5983046  169.8555633  541.6423372   0.5000   0.5000  -0.5000    1.5822437    1.5834491   -1.5824569   0
    8  131.3258173  169.6249451  544.7184574   0.5000   0.5000  -0.5000    1.5822437    1.5834491   -1.5824569   0
    9  399.3181600  211.2641254  125.8222247   0.5000  -0.5000   0.5000    1.5820390   -1.5843491    1.5811482   1
    9  397.7195085  212.2420319  127.9626357   0.5000  -0.5000   0.5000    1.5820390   -1.5843491    1.5811482   1
    9  395.7700929  212.5332851  128.2885436   0.5000  -0.5000   0.5000    1.5820390   -1.5843491    1.5811482   1
    9  394.5753081  211.8679254  126.8574370   0.5000  -0.5000   0.5000    1.5820390   -1.5843491    1.5811482   1
    9  393.8690620  210.0708424  125.8202565   0.5000  -0.5000   0.5000    1.5820390   -1.5843491    1.5811482   1
    9  393.2597754  207.7973411  125.7023363   0.5000  -0.5000   0.5000    1.5820390   -1.5843491    1.5811482   1
    9  392.5643491  205.9986871  125.8254078   0.5000  -0.5000   0.5000    1.5820390   -1.5843491    1.5811482   1
    9  391.9749120  204.0294427  125.8008355   0.5000  -0.5000   0.5000    1.5820390   -1.5843491    1.5811482   1
    9  390.9622746  201.9584614  126.0470812   0.5000  -0.5000   0.5000    1.5820390   -1.5843491    1.5811482   1
    9  389.1199592  200.4845407  126.9153303   0.5000  -0.5000   0.5000    1.5820390   -1.5843491    1.5811482   1
    9  387.0417928  199.7810330  128.0928943   0.5000  -0.5000   0.5000    1.5820390   -1.5843491    1.5811482   1
    9  385.1367569  200.2961013  129.6494536   0.5000  -0.5000   0.5000    1.5820390   -1.5843491    1.5811482   1
    9  384.2980467  201.7244173  131.3269237   0.5000  -0.5000   0.5000    1.5820390   -1.5843491    1.5811482   1
    9  384.3993641  202.2719522  132.4854700   0.5000  -0.5000   0.5000    1.5820390   -1.5843491    1.5811482   1
    9  383.8224611  201.9757887  133.2265438   0.5000  -0.5000   0.5000    1.5820390   -1.5843491    1.5811482   1
    9  382.6449099  201.7993211  134.4309059   0.5000  -0.5000   0.5000    1.5820390   -1.5843491    1.5811482   1
    9  381.6256206  201.2145226  136.8821833   0.5000  -0.5000   0.5000    1.5820390   -1.5843491    1.5811482   1
    9  380.6339532  201.1821731  139.3007385   0.5000  -0.5000   0.5000    1.5820390   -1.5843491    1.5811482   1
    9  379.6545898  202.2129935  140.6402155   0.5000  -0.5000   0.5000    1.5820390   -1.5843491    1.5811482   1
    9  378.8691002  202.9153427  142.3600132   0.5000  -0.5000   0.5000    1.5820390   -1.5843491    1.5811482   1
    9  378.7890851  203.4543915  144.5727851   0.5000  -0.5000   0.5000    1.5820390   -1.5843491    1.5811482   1
    9  379.6123518  204.9586975  145.6827040   0.5000  -0.5000   0.5000    1.5820390   -1.5843491    1.5811482   1
    9  380.5408820  207.0700194  145.5002888   0.5000  -0.5000   0.5000    1.5820390   -1.5843491    1.5811482   1
    9  381.3086208  208.5764657  144.5611328   0.5000  -0.5000   0.5000    1.5820390   -1.5843491    1.5811482   1
    9  382.1326363  209.7434039  143.6799546   0.5000  -0.5000   0.5000    1.5820390   -1.5843491    1.5811482   1
    9  382.7193407  210.9267404  143.0472401   0.5000  -0.5000   0.5000    1.5820390   -1.5843491    1.5811482   1
    9  383.7080698  211.2322967  141.9061657   0.5000  -0.5000   0.5000    1.5820390   -1.5843491    1.5811482   1
    9  384.9165052  211.5153117  140.6720502   0.5000  -0.5000   0.5000    1.5820390   -1.5843491    1.5811482   1
    9  385.8147884  212.9765481  139.7839736   0.5000  -0.5000   0.5000    1.5820390   -1.5843491    1.5811482   1
    9  386.8109921  215.1508401  139.3089232   0.5000  -0.5000   0.5000    1.5820390   -1.5843491    1.5811482   1
    9  387.6154700  217.3783163  139.2449265   0.5000  -0.5000   0.5000    1.5820390   -1.5843491    1.5811482   1
    9  388.4017312  219.1006841  139.0887310   0.5000  -0.5000   0.5000    1.5820390   -1.5843491    1.5811482   1
    9  389.8810109  220.1430392  138.5885107   0.5000  -0.5000   0.5000    1.5820390   -1.5843491    1.5811482   1
    9  391.7654119  220.8828496  137.2806467   0.5000  -0.5000   0.5000    1.5820390   -1.5843491    1.5811482   1
    9  393.3645436  221.7332578  136.0008372   0.5000  -0.5000   0.5000    1.5820390   -1.5843491    1.5811482   1
    9  393.8854934  222.0535953  135.2683275   0.5000  -0.5000   0.5000    1.5820390   -1.5843491    1.5811482   1
    9  393.2264882  221.1554911  133.9478378   0.5000  -0.5000   0.5000    1.5820390   -1.5843491    1.5811482   1
    9  393.1288661  219.1588887  132.5393033   0.5000  -0.5000   0.5000    1.5820390   -1.5843491    1.5811482   1
    9  393.5111917  216.9231513  131.4207755   0.5000  -0.5000   0.5000    1.5820390   -1.5843491    1.5811482   1
    9  393.5300541  215.2964259  130.4972815   0.5000  -0.5000   0.5000    1.5820390   -1.5843491    1.5811482   1
    9  394.6604770  214.0489422  130.4690977   0.5000  -0.5000   0.5000    1.5820390   -1.5843491    1.5811482   1
    9  396.5035092  213.2577379  130.7341500   0.5000  -0.5000   0.5000    1.5820390   -1.5843491    1.5811482   1
    9  397.2789083  212.8043584  130.1502192   0.5000  -0.5000   0.5000    1.5820390   -1.5843491    1.5811482   1
    9  397.9230207  212.0892684  128.3352982   0.5000  -0.5000   0.5000    1.5820390   -1.5843491    1.5811482   1
    9  399.3181600  211.2641253  125.8222249   0.5000  -0.5000   0.5000    1.5820390   -1.5843491    1.5811482   1
   10  330.9415000  381.2077143   71.9216358   0.5000   0.5000   0.5000    1.5814128    1.5799885    1.5818669   0
   10  331.1379635  383.6018048   71.2858372   0.5000   0.5000   0.5000    1.5814128    1.5799885    1.5818669   0
   10  329.4718620  385.3715912   70.8932409   0.5000   0.5000   0.5000    1.5814128    1.5799885    1.5818669   0
   10  328.4940080  387.2169718   70.5721376   0.5000   0.5000   0.5000    1.5814128    1.5799885    1.5818669   0
   10  328.7559844  388.8652215   68.9045215   0.5000   0.5000   0.5000    1.5814128    1.5799885    1.5818669   0
   10  329.0407849  389.3720990   66.3033072   0.5000   0.5000   0.5000    1.5814128    1.5799885    1.5818669   0
   10  329.8048220  388.9382286   64.1292701   0.5000   0.5000   0.5000    1.5814128    1.5799885    1.5818669   0
   10  331.0856462  388.6620780   62.1787804   0.5000   0.5000   0.5000    1.5814128    1.5799885    1.5818669   0
   10  332.2542347  388.4448288   60.3510927   0.5000   0.5000   0.5000    1.5814128    1.5799885    1.5818669   0
   10  332.6619747  387.2570751   58.4508540   0.5000   0.5000   0.5000    1.5814128    1.5799885    1.5818669   0
   10  332.7930554  385.8321000   57.3904895   0.5000   0.5000   0.5000    1.5814128    1.5799885    1.5818669   0
   10  333.5184393  385.3586888   58.1095491   0.5000   0.5000   0.5000    1.5814128    1.5799885    1.5818669   0
   10  334.4776127  385.0690083   59.9345586   0.5000   0.5000   0.5000    1.5814128    1.5799885    1.5818669   0
   10  334.9019284  384.4437199   62.6079655   0.5000   0.5000   0.5000    1.5814128    1.5799885    1.5818669   0
   10  334.3665320  383.8109375   65.1818454   0.5000   0.5000   0.5000    1.5814128    1.5799885    1.5818669   0
   10  333.8673974  383.6849127   67.0336827   0.5000   0.5000   0.5000    1.5814128    1.5799885    1.5818669   0
   10  333.9622581  383.4523315   68.7961448   0.5000   0.5000   0.5000    1.5814128    1.5799885    1.5818669   0
   10  333.6018761  381.9072183   70.0960742   0.5000   0.5000   0.5000    1.5814128    1.5799885    1.5818669   0
   10  332.7954759  380.5542464   70.9167796   0.5000   0.5000   0.5000    1.5814128    1.5799885    1.5818669   0
   10  332.0520001  380.5321428   72.1248214   0.5000   0.5000   0.5000    1.5814128    1.5799885    1.5818669   0
   11  170.4915654  483.5747307   53.4842897   0.5000  -0.5000   0.5000    1.5820390   -1.5843491    1.5811482   1
   11  169.9696690  484.9699775   53.7796657   0.5000  -0.5000   0.5000    1.5820390   -1.5843491    1.5811482   1
   11  168.7606147  486.2449930   54.5529931   0.5000  -0.5000   0.5000    1.5820390   -1.5843491    1.5811482   1
   11  167.8210529  487.5937459   55.7021954   0.5000  -0.5000   0.5000    1.5820390   -1.5843491    1.5811482   1
   11  167.6687049  489.3027985   56.7338319   0.5000  -0.5000   0.5000    1.5820390   -1.5843491    1.5811482   1
   11  168.8346556  491.0395436   57.2196432   0.5000  -0.5000   0.5000    1.5820390   -1.5843491    1.5811482   1
   11  170.6186715  492.2765443   57.1441718   0.5000  -0.5000   0.5000    1.5820390   -1.5843491    1.5811482   1
   11  172.2277081  493.1423152   56.4336249   0.5000  -0.5000   0.5000    1.5820390   -1.5843491    1.5811482   1
   11  173.5644636  493.7229561   54.8590189   0.5000  -0.5000   0.5000    1.5820390   -1.5843491    1.5811482   1
   11  174.0502245  493.2526163   52.7230672   0.5000  -0.5000   0.5000    1.5820390   -1.5843491    1.5811482   1
   11  173.9277797  491.2073331   51.4441632   0.5000  -0.5000   0.5000    1.5820390   -1.5843491    1.5811482   1
   11  173.5547519  488.8528771   51.1327597   0.5000  -0.5000   0.5000    1.5820390   -1.5843491    1.5811482   1
   11  173.0320352  487.3578458   51.0659665   0.5000  -0.5000   0.5000    1.5820390   -1.5843491    1.5811482   1
   11  172.6560934  485.8526074   51.1919428   0.5000  -0.5000   0.5000    1.5820390   -1.5843491    1.5811482   1
   11  172.0596938  484.2083060   51.6269332   0.5000  -0.5000   0.5000    1.5820390   -1.5843491    1.5811482   1
   11  171.3142092  483.3518817   52.3422322   0.5000  -0.5000   0.5000    1.5820390   -1.5843491    1.5811482   1
   11  170.4915654  483.5747307   53.4842897   0.5000  -0.5000   0.5000    1.5820390   -1.5843491    1.5811482   1
   12   78.8012269  701.2725773   44.1985841  -0.5000  -0.5000  -0.5000   -1.5814128   -1.5799885   -1.5818669   0
   12   77.2449158  703.0252799   45.2819691  -0.5000  -0.5000  -0.5000   -1.5814128   -1.5799885   -1.5818669   0
   12   76.2771080  704.6887631   46.4671990  -0.5000  -0.5000  -0.5000   -1.5814128   -1.5799885   -1.5818669   0
   12   75.6781855  706.0443972   48.4376483  -0.5000  -0.5000  -0.5000   -1.5814128   -1.5799885   -1.5818669   0
   12   74.7622374  706.7206482   50.8348113  -0.5000  -0.5000  -0.5000   -1.5814128   -1.5799885   -1.5818669   0
   12   73.2999437  707.0434512   52.5910581  -0.5000  -0.5000  -0.5000   -1.5814128   -1.5799885   -1.5818669   0
   12   71.8814782  707.5181939   54.0239648  -0.5000  -0.5000  -0.5000   -1.5814128   -1.5799885   -1.5818669   0
   12   71.0362004  708.5803033   55.4831524  -0.5000  -0.5000  -0.5000   -1.5814128   -1.5799885   -1.5818669   0