ITEM: TIMESTEP
0
ITEM: NUMBER OF ATOMS
7985
ITEM: BOX BOUNDS pp pp pp 
0.0 695.853945
0.0 696.537304
0.0 698.087772
ITEM: ATOMS id x y z tbx tby tbz sbx sby sbz loop
    0  297.4309166  531.5410000  610.8799722   0.5000   0.5000  -0.5000    1.5827186    1.5842846   -1.5808826   0
    0  296.4924795  533.7168959  612.6178096   0.5000   0.5000  -0.5000    1.5827186    1.5842846   -1.5808826   0
    0  295.6556440  536.1022875  613.8149980   0.5000   0.5000  -0.5000    1.5827186    1.5842846   -1.5808826   0
    0  295.3704176  538.4769035  615.0262481   0.5000   0.5000  -0.5000    1.5827186    1.5842846   -1.5808826   0
    0  295.6116312  539.9761417  615.8434345   0.5000   0.5000  -0.5000    1.5827186    1.5842846   -1.5808826   0
    0  295.1673193  540.7185385  616.6907912   0.5000   0.5000  -0.5000    1.5827186    1.5842846   -1.5808826   0
    0  294.2972976  542.2576422  618.1762882   0.5000   0.5000  -0.5000    1.5827186    1.5842846   -1.5808826   0
    0  293.2563089  544.1992298  619.5489881   0.5000   0.5000  -0.5000    1.5827186    1.5842846   -1.5808826   0
    0  292.1181395  545.4786168  620.8391881   0.5000   0.5000  -0.5000    1.5827186    1.5842846   -1.5808826   0
    0  291.6870571  546.5380922  622.4996582   0.5000   0.5000  -0.5000    1.5827186    1.5842846   -1.5808826   0
    0  291.5673247  548.1370887  623.9383741   0.5000   0.5000  -0.5000    1.5827186    1.5842846   -1.5808826   0
    0  290.4115932  550.0586124  624.7240207   0.5000   0.5000  -0.5000    1.5827186    1.5842846   -1.5808826   0
    0  288.3765744  551.4464090  624.8377668   0.5000   0.5000  -0.5000    1.5827186    1.5842846   -1.5808826   0
    0  286.7503019  552.0324436  624.3163483   0.5000   0.5000  -0.5000    1.5827186    1.5842846   -1.5808826   0
    0  285.1089261  551.9513217  624.2314980   0.5000   0.5000  -0.5000    1.5827186    1.5842846   -1.5808826   0
    0  283.0569265  551.4311010  624.4788953   0.5000   0.5000  -0.5000    1.5827186    1.5842846   -1.5808826   0
    0  282.1404623  550.8454483  623.3861049   0.5000   0.5000  -0.5000    1.5827186    1.5842846   -1.5808826   0
    0  282.3799887  551.0437716  622.1500038   0.5000   0.5000  -0.5000    1.5827186    1.5842846   -1.5808826   0
    0  282.5644991  552.6476659  622.4216177   0.5000   0.5000  -0.5000    1.5827186    1.5842846   -1.5808826   0
    0  282.7069086  554.0551111  623.6218679   0.5000   0.5000  -0.5000    1.5827186    1.5842846   -1.5808826   0
    0  283.0421448  553.9290843  625.5092197   0.5000   0.5000  -0.5000    1.5827186    1.5842846   -1.5808826   0
    0  283.9661579  553.3884284  627.5947336   0.5000   0.5000  -0.5000    1.5827186    1.5842846   -1.5808826   0
    0  285.1883140  553.3312097  629.8339234   0.5000   0.5000  -0.5000    1.5827186    1.5842846   -1.5808826   0
    0  286.2218127  554.0365637  632.0484143   0.5000   0.5000  -0.5000    1.5827186    1.5842846   -1.5808826   0
    0  287.3114703  555.3256514  633.6432365   0.5000   0.5000  -0.5000    1.5827186    1.5842846   -1.5808826   0
    0  288.3912861  556.7554312  635.1647529   0.5000   0.5000  -0.5000    1.5827186    1.5842846   -1.5808826   0
    0  289.3831720  558.0086936  636.2823543   0.5000   0.5000  -0.5000    1.5827186    1.5842846   -1.5808826   0
    0  290.2034999  558.7234286  636.6364286   0.5000   0.5000  -0.5000    1.5827186    1.5842846   -1.5808826   0
    1  678.7518494  290.4224935  327.2807690  -0.5000  -0.5000   0.5000   -1.5827186   -1.5842846    1.5808826   0
    1  678.0712920  293.2406856  329.2788178  -0.5000  -0.5000   0.5000   -1.5827186   -1.5842846    1.5808826   0
    1  678.4564872  294.6809340  330.6165196  -0.5000  -0.5000   0.5000   -1.5827186   -1.5842846    1.5808826   0
    1  679.8424962  294.8414871  331.2049865  -0.5000  -0.5000   0.5000   -1.5827186   -1.5842846    1.5808826   0
    1  681.8805199  294.0485808  331.4116573  -0.5000  -0.5000   0.5000   -1.5827186   -1.5842846    1.5808826   0
    1  684.0923691  292.9403206  331.5586201  -0.5000  -0.5000   0.5000   -1.5827186   -1.5842846    1.5808826   0
    1  685.2999112  291.9830517  330.4758305  -0.5000  -0.5000   0.5000   -1.5827186   -1.5842846    1.5808826   0
    1  685.1953915  290.9175556  328.4781051  -0.5000  -0.5000   0.5000   -1.5827186   -1.5842846    1.5808826   0
    1  684.6106508  289.7659303  327.3113315  -0.5000  -0.5000   0.5000   -1.5827186   -1.5842846    1.5808826   0
    1  682.8895829  289.5170122  326.9855315  -0.5000  -0.5000   0.5000   -1.5827186   -1.5842846    1.5808826   0
    1  678.7518494  290.4224935  327.2807690  -0.5000  -0.5000   0.5000   -1.5827186   -1.5842846    1.5808826   0
    2  485.5587143  611.5615715  695.2876498   0.5000   0.5000  -0.5000    1.5827186    1.5842846   -1.5808826   0
    2  485.8595587  611.2082896  692.8130203   0.5000   0.5000  -0.5000    1.5827186    1.5842846   -1.5808826   0
    2  484.8887066  609.7783353  691.2206110   0.5000   0.5000  -0.5000    1.5827186    1.5842846   -1.5808826   0
    2  483.7137796  607.6445400  689.4529241   0.5000   0.5000  -0.5000    1.5827186    1.5842846   -1.5808826   0
    2  483.4596620  606.4350955  687.8690037   0.5000   0.5000  -0.5000    1.5827186    1.5842846   -1.5808826   0
    2  483.4176567  607.2831316  687.2448744   0.5000   0.5000  -0.5000    1.5827186    1.5842846   -1.5808826   0
    2  481.8203152  608.6090506  686.9474811   0.5000   0.5000  -0.5000    1.5827186    1.5842846   -1.5808826   0
    2  479.2895899  609.4428433  686.5589427   0.5000   0.5000  -0.5000    1.5827186    1.5842846   -1.5808826   0
    2  477.1753048  610.5349753  686.4156166   0.5000   0.5000  -0.5000    1.5827186    1.5842846   -1.5808826   0
    2  475.1218273  611.7340586  686.2904891   0.5000   0.5000  -0.5000    1.5827186    1.5842846   -1.5808826   0
    2  472.7957043  612.5128711  686.0199442   0.5000   0.5000  -0.5000    1.5827186    1.5842846   -1.5808826   0
    2  470.4895632  612.9314584  685.6884576   0.5000   0.5000  -0.5000    1.5827186    1.5842846   -1.5808826   0
    2  468.7644582  613.6519176  684.9452820   0.5000   0.5000  -0.5000    1.5827186    1.5842846   -1.5808826   0
    2  467.5885383  614.1813134  683.9186278   0.5000   0.5000  -0.5000    1.5827186    1.5842846   -1.5808826   0
    2  466.5907823  613.6465143  682.7101695   0.5000   0.5000  -0.5000    1.5827186    1.5842846   -1.5808826   0
    2  465.8925510  612.9418017  680.8719360   0.5000   0.5000  -0.5000    1.5827186    1.5842846   -1.5808826   0
    2  465.7904285  612.1799678  678.7222985   0.5000   0.5000  -0.5000    1.5827186    1.5842846   -1.5808826   0
    2  466.1036416  610.7047084  677.2724524   0.5000   0.5000  -0.5000    1.5827186    1.5842846   -1.5808826   0
    2  466.7389388  609.5294228  676.0932707   0.5000   0.5000  -0.5000    1.5827186    1.5842846   -1.5808826   0
    2  467.5494189  609.1869593  674.5664381   0.5000   0.5000  -0.5000    1.5827186    1.5842846   -1.5808826   0
    2  468.0522757  608.4428272  673.0777883   0.5000   0.5000  -0.5000    1.5827186    1.5842846   -1.5808826   0
    2  469.0726371  607.2739913  671.7581214   0.5000   0.5000  -0.5000    1.5827186    1.5842846   -1.5808826   0
    2  471.2303290  606.3202478  671.2108464   0.5000   0.5000  -0.5000    1.5827186    1.5842846   -1.5808826   0
    2  473.2869706  605.1825978  671.4105350   0.5000   0.5000  -0.5000    1.5827186    1.5842846   -1.5808826   0
    2  474.4236156  604.2541481  670.7198231   0.5000   0.5000  -0.5000    1.5827186    1.5842846   -1.5808826   0
    2  475.0360900  603.4616202  669.0222805   0.5000   0.5000  -0.5000    1.5827186    1.5842846   -1.5808826   0
    2  474.7769354  601.9721501  667.9189451   0.5000   0.5000  -0.5000    1.5827186    1.5842846   -1.5808826   0
    2  473.6148030  600.0452428  667.6213432   0.5000   0.5000  -0.5000    1.5827186    1.5842846   -1.5808826   0
    2  473.3900925  598.2544857  667.7090873   0.5000   0.5000  -0.5000    1.5827186    1.5842846   -1.5808826   0
    2  473.0880654  597.0715328  668.7369224   0.5000   0.5000  -0.5000    1.5827186    1.5842846   -1.5808826   0
    2  470.5438801  596.4699233  670.7705682   0.5000   0.5000  -0.5000    1.5827186    1.5842846   -1.5808826   0
    2  468.0807688  595.7150398  672.9628268   0.5000   0.5000  -0.5000    1.5827186    1.5842846   -1.5808826   0
    2  468.1523039  594.7938711  673.9072258   0.5000   0.5000  -0.5000    1.5827186    1.5842846   -1.5808826   0
    2  469.7449176  594.5635620  672.5923173   0.5000   0.5000  -0.5000    1.5827186    1.5842846   -1.5808826   0
    2  471.3061923  594.8321947  669.9764694   0.5000   0.5000  -0.5000    1.5827186    1.5842846   -1.5808826   0
    2  472.3413169  595.1935324  667.4190245   0.5000   0.5000  -0.5000    1.5827186    1.5842846   -1.5808826   0
    2  472.2264144  595.1825076  665.3311936   0.5000   0.5000  -0.5000    1.5827186    1.5842846   -1.5808826   0
    2  471.4645236  593.6838434  663.5457906   0.5000   0.5000  -0.5000    1.5827186    1.5842846   -1.5808826   0
    2  471.6027237  591.8744990  661.8694085   0.5000   0.5000  -0.5000    1.5827186    1.5842846   -1.5808826   0
    2  471.5260984  591.7826965  661.0766275   0.5000   0.5000  -0.5000    1.5827186    1.5842846   -1.5808826   0
    2  470.0767315  592.9186617  661.2290915   0.5000   0.5000  -0.5000    1.5827186    1.5842846   -1.5808826   0
    2  468.6269239  593.9519730  661.1001147   0.5000   0.5000  -0.5000    1.5827186    1.5842846   -1.5808826   0
    2  467.4652054  594.4511883  659.8414820   0.5000   0.5000  -0.5000    1.5827186    1.5842846   -1.5808826   0
    2  466.2505939  594.2631647  657.5802729   0.5000   0.5000  -0.5000    1.5827186    1.5842846   -1.5808826   0
    2  464.9713559  593.7542488  655.6816426   0.5000   0.5000  -0.5000    1.5827186    1.5842846   -1.5808826   0
    2  463.5127562  593.5988910  654.1974961   0.5000   0.5000  -0.5000    1.5827186    1.5842846   -1.5808826   0
    2  462.8985515  593.9071036  651.9641633   0.5000   0.5000  -0.5000    1.5827186    1.5842846   -1.5808826   0
    2  463.3486231  594.6170554  649.7176273   0.5000   0.5000  -0.5000    1.5827186    1.5842846   -1.5808826   0
    2  463.4234289  594.7598153  648.3925336   0.5000   0.5000  -0.5000    1.5827186    1.5842846   -1.5808826   0
    2  462.4177044  593.5794193  647.0737011   0.5000   0.5000  -0.5000    1.5827186    1.5842846   -1.5808826   0
    2  461.2392125  592.3897419  644.7727723   0.5000   0.5000  -0.5000    1.5827186    1.5842846   -1.5808826   0
    2  460.9525083  591.4443745  642.4954053   0.5000   0.5000  -0.5000    1.5827186    1.5842846   -1.5808826   0
    2  461.4600333  590.1930635  641.2194902   0.5000   0.5000  -0.5000    1.5827186    1.5842846   -1.5808826   0
    2  462.5127271  589.0110816  640.1564013   0.5000   0.5000  -0.5000    1.5827186    1.5842846   -1.5808826   0
    2  464.5553293  587.7800220  639.3955336   0.5000   0.5000  -0.5000    1.5827186    1.5842846   -1.5808826   0
    2  467.4846780  586.8753880  639.3283045   0.5000   0.5000  -0.5000    1.5827186    1.5842846   -1.5808826   0
    2  470.0105545  586.2954755  639.9204030   0.5000   0.5000  -0.5000    1.5827186    1.5842846   -1.5808826   0
    2  471.7937073  585.9740321  640.7481578   0.5000   0.5000  -0.5000    1.5827186    1.5842846   -1.5808826   0
    2  473.3212170  585.6680598  640.8686834   0.5000   0.5000  -0.5000    1.5827186    1.5842846   -1.5808826   0
    2  474.7390976  584.4004677  640.2392122   0.5000   0.5000  -0.5000    1.5827186    1.5842846   -1.5808826   0
    2  476.2524750  582.6758283  638.9321110   0.5000   0.5000  -0.5000    1.5827186    1.5842846   -1.5808826   0
    2  477.7249399  580.9303939  637.3020760   0.5000   0.5000  -0.5000    1.5827186    1.5842846   -1.5808826   0
    2  479.2869720  579.2894933  635.9668878   0.5000   0.5000  -0.5000    1.5827186    1.5842846   -1.5808826   0
    2  481.5228235  578.5233709  635.3052499   0.5000   0.5000  -0.5000    1.5827186    1.5842846   -1.5808826   0
    2  483.9863421  578.1943575  635.0895893   0.5000   0.5000  -0.5000    1.5827186    1.5842846   -1.5808826   0
    2  485.7166789  577.9914815  634.8681290   0.5000   0.5000  -0.5000    1.5827186    1.5842846   -1.5808826   0
    2  487.3977833  578.3511935  634.7628064   0.5000   0.5000  -0.5000    1.5827186    1.5842846   -1.5808826   0
    2  489.6266120  578.6123370  635.5013470   0.5000   0.5000  -0.5000    1.5827186    1.5842846   -1.5808826   0
    2  491.6923781  578.5326477  637.4458888   0.5000   0.5000  -0.5000    1.5827186    1.5842846   -1.5808826   0
    2  493.3543241  578.5566986  639.4671188   0.5000   0.5000  -0.5000    1.5827186    1.5842846   -1.5808826   0
    2  494.7653925  578.9784677  640.6508165   0.5000   0.5000  -0.5000    1.5827186    1.5842846   -1.5808826   0
    2  495.8889660  579.9107290  641.6293561   0.5000   0.5000  -0.5000    1.5827186    1.5842846   -1.5808826   0
    2  496.3286605  581.3605704  643.0086824   0.5000   0.5000  -0.5000    1.5827186    1.5842846   -1.5808826   0
    2  496.8002629  583.3386530  643.8188785   0.5000   0.5000  -0.5000    1.5827186    1.5842846   -1.5808826   0
    2  498.3528185  585.2438928  643.8342429   0.5000   0.5000  -0.5000    1.5827186    1.5842846   -1.5808826   0
    2  500.4468196  586.8156939  643.7051898   0.5000   0.5000  -0.5000    1.5827186    1.5842846   -1.5808826   0
    2  501.4833578  587.6306907  643.9347475   0.5000   0.5000  -0.5000    1.5827186    1.5842846   -1.5808826   0
    2  501.0170115  587.1470360  645.4763491   0.5000   0.5000  -0.5000    1.5827186    1.5842846   -1.5808826   0
    2  500.7372695  587.0326981  647.8430324   0.5000   0.5000  -0.5000    1.5827186    1.5842846   -1.5808826   0
    2  500.7544157  588.0231021  649.9463922   0.5000   0.5000  -0.5000    1.5827186    1.5842846   -1.5808826   0
    2  499.7518008  588.8450908  651.7687341   0.5000   0.5000  -0.5000    1.5827186    1.5842846   -1.5808826   0
    2  497.7075608  589.7068567  653.1819523   0.5000   0.5000  -0.5000    1.5827186    1.5842846   -1.5808826   0
    2  496.5423398  590.9410942  653.7697608   0.5000   0.5000  -0.5000    1.5827186    1.5842846   -1.5808826   0
    2  497.5844007  591.3192824  653.9362027   0.5000   0.5000  -0.5000    1.5827186    1.5842846   -1.5808826   0
    2  499.3215100  590.2791586  654.2507032   0.5000   0.5000  -0.5000    1.5827186    1.5842846   -1.5808826   0
    2  500.8058422  589.1603227  654.9195574   0.5000   0.5000  -0.5000    1.5827186    1.5842846   -1.5808826   0
    2  502.2869126  588.5646027  656.1267995   0.5000   0.5000  -0.5000    1.5827186    1.5842846   -1.5808826   0
    2  503.4748278  588.2962475  657.8499501   0.5000   0.5000  -0.5000    1.5827186    1.5842846   -1.5808826   0
    2  504.3284048  588.6144139  660.1369606   0.5000   0.5000  -0.5000    1.5827186    1.5842846   -1.5808826   0
    2  505.5993553  589.0049144  662.1762640   0.5000   0.5000  -0.5000    1.5827186    1.5842846   -1.5808826   0
    2  507.1349127  588.4796536  663.3148541   0.5000   0.5000  -0.5000    1.5827186    1.5842846   -1.5808826   0
    2  508.2928056  587.4277608  664.4557366   0.5000   0.5000  -0.5000    1.5827186    1.5842846   -1.5808826   0
    2  509.5162333  587.3230904  665.9940314   0.5000   0.5000  -0.5000    1.5827186    1.5842846   -1.5808826   0
    2  510.5599855  588.0687561  668.0628917   0.5000   0.5000  -0.5000    1.5827186    1.5842846   -1.5808826   0
    2  510.8784864  588.5988754  670.6855711   0.5000   0.5000  -0.5000    1.5827186    1.5842846   -1.5808826   0
    2  510.6578227  589.0186893  672.8359475   0.5000   0.5000  -0.5000    1.5827186    1.5842846   -1.5808826   0
    2  509.8903522  589.9893864  673.8429655   0.5000   0.5000  -0.5000    1.5827186    1.5842846   -1.5808826   0
    2  508.7601949  590.7599694  674.6595864   0.5000   0.5000  -0.5000    1.5827186    1.5842846   -1.5808826   0
    2  508.1157187  590.3189262  676.7747123   0.5000   0.5000  -0.5000    1.5827186    1.5842846   -1.5808826   0
    2  508.2625292  589.7777124  679.5599075   0.5000   0.5000  -0.5000    1.5827186    1.5842846   -1.5808826   0
    2  508.8617659  590.4081886  681.4527841   0.5000   0.5000  -0.5000    1.5827186    1.5842846   -1.5808826   0
    2  509.0193128  591.7875858  682.4402179   0.5000   0.5000  -0.5000    1.5827186    1.5842846   -1.5808826   0
    2  507.4351994  592.7540719  683.1085262   0.5000   0.5000  -0.5000    1.5827186    1.5842846   -1.5808826   0
    2  504.7594658  593.2244917  683.6675425   0.5000   0.5000  -0.5000    1.5827186    1.5842846   -1.5808826   0
    2  502.4834807  593.7213594  684.2124792   0.5000   0.5000  -0.5000    1.5827186    1.5842846   -1.5808826   0
    2  500.9516349  594.6584976  684.9607797   0.5000   0.5000  -0.5000    1.5827186    1.5842846   -1.5808826   0
    2  499.7217222  596.0758680  685.8327748   0.5000   0.5000  -0.5000    1.5827186    1.5842846   -1.5808826   0
    2  498.1285916  597.2209682  686.6322790   0.5000   0.5000  -0.5000    1.5827186    1.5842846   -1.5808826   0
    2  496.6908178  598.2169932  687.8221607   0.5000   0.5000  -0.5000    1.5827186    1.5842846   -1.5808826   0
    2  495.9754488  599.5465000  689.4688024   0.5000   0.5000  -0.5000    1.5827186    1.5842846   -1.5808826   0
    2  494.9063561  601.0357925  690.6144302   0.5000   0.5000  -0.5000    1.5827186    1.5842846   -1.5808826   0
    2  492.7933478  602.2920636  691.0311932   0.5000   0.5000  -0.5000    1.5827186    1.5842846   -1.5808826   0
    2  491.0039840  603.6436423  691.4330181   0.5000   0.5000  -0.5000    1.5827186    1.5842846   -1.5808826   0
    2  490.3208834  605.6437422  692.1788589   0.5000   0.5000  -0.5000    1.5827186    1.5842846   -1.5808826   0
    2  489.5170289  607.8028337  693.0248462   0.5000   0.5000  -0.5000    1.5827186    1.5842846   -1.5808826   0
    2  488.4986052  609.4871330  693.7779569   0.5000   0.5000  -0.5000    1.5827186    1.5842846   -1.5808826   0
    2  488.1467281  610.4531118  694.7869799   0.5000   0.5000  -0.5000    1.5827186    1.5842846   -1.5808826   0
    2  488.0455715  611.0321427  696.0481669   0.5000   0.5000  -0.5000    1.5827186    1.5842846   -1.5808826   0
    3  660.5197979  365.1655345  370.0250877   0.5000   0.5000  -0.5000    1.5827186    1.5842846   -1.5808826   1
    3  659.7260115  366.1204146  371.8213547   0.5000   0.5000  -0.5000    1.5827186    1.5842846   -1.5808826   1
    3  659.7679524  367.4593479  373.8341321   0.5000   0.5000  -0.5000    1.5827186    1.5842846   -1.5808826   1
    3  659.2211360  368.4816901  374.9351495   0.5000   0.5000  -0.5000    1.5827186    1.5842846   -1.5808826   1
    3  657.9513596  369.2916248  375.7779831   0.5000   0.5000  -0.5000    1.5827186    1.5842846   -1.5808826   1
    3  656.6849550  370.5967617  375.7056953   0.5000   0.5000  -0.5000    1.5827186    1.5842846   -1.5808826   1
    3  655.5799072  371.8456299  374.3607721   0.5000   0.5000  -0.5000    1.5827186    1.5842846   -1.5808826   1
    3  654.4776784  372.6936692  372.9373717   0.5000   0.5000  -0.5000    1.5827186    1.5842846   -1.5808826   1
    3  653.0830682  373.2720870  371.9460675   0.5000   0.5000  -0.5000    1.5827186    1.5842846   -1.5808826   1
    3  651.6722763  372.6245124  370.7852360   0.5000   0.5000  -0.5000    1.5827186    1.5842846   -1.5808826   1
    3  651.3467843  371.0629071  369.6194219   0.5000   0.5000  -0.5000    1.5827186    1.5842846   -1.5808826   1
    3  652.3059123  369.8927648  368.5544204   0.5000   0.5000  -0.5000    1.5827186    1.5842846   -1.5808826   1
    3  653.3961587  368.6177705  367.5076250   0.5000   0.5000  -0.5000    1.5827186    1.5842846   -1.5808826   1
    3  654.6935437  366.8963874  367.1128301   0.5000   0.5000  -0.5000    1.5827186    1.5842846   -1.5808826   1
    3  656.4934302  365.8041038  367.5917286   0.5000   0.5000  -0.5000    1.5827186    1.5842846   -1.5808826   1
    3  658.0705729  365.4817361  368.8603344   0.5000   0.5000  -0.5000    1.5827186    1.5842846   -1.5808826   1
    3  659.3563052  365.2633454  369.6756345   0.5000   0.5000  -0.5000    1.5827186    1.5842846   -1.5808826   1
    3  660.5197979  365.1655344  370.0250876   0.5000   0.5000  -0.5000    1.5827186    1.5842846   -1.5808826   1
    4  527.8862352  355.3643119  121.5452934  -0.5000   0.5000  -0.5000   -1.5814931    1.5840683   -1.5805849   1
    4  528.7285925  354.8122329  120.0623207  -0.5000   0.5000  -0.5000   -1.5814931    1.5840683   -1.5805849   1
    4  529.4347384  353.9652535  118.1355256  -0.5000   0.5000  -0.5000   -1.5814931    1.5840683   -1.5805849   1
    4  530.1757894  353.3979544  116.1836744  -0.5000   0.5000  -0.5000   -1.5814931    1.5840683   -1.5805849   1
    4  531.7424302  353.1924938  114.7323955  -0.5000   0.5000  -0.5000   -1.5814931    1.5840683   -1.5805849   1
    4  533.9883486  353.9784144  114.4464710  -0.5000   0.5000  -0.5000   -1.5814931    1.5840683   -1.5805849   1
    4  535.3102398  356.0904065  114.7972358  -0.5000   0.5000  -0.5000   -1.5814931    1.5840683   -1.5805849   1
    4  535.5688699  358.4702166  115.4935208  -0.5000   0.5000  -0.5000   -1.5814931    1.5840683   -1.5805849   1
    4  535.4953375  359.7566522  117.2320380  -0.5000   0.5000  -0.5000   -1.5814931    1.5840683   -1.5805849   1
    4  534.9369311  360.3912795  119.3756459  -0.5000   0.5000  -0.5000   -1.5814931    1.5840683   -1.5805849   1
    4  533.8760064  360.8655340  120.9287891  -0.5000   0.5000  -0.5000   -1.5814931    1.5840683   -1.5805849   1
    4  532.2397605  360.6290264  122.1090865  -0.5000   0.5000  -0.5000   -1.5814931    1.5840683   -1.5805849   1
    4  529.8558189  359.6859779  122.8376643  -0.5000   0.5000  -0.5000   -1.5814931    1.5840683   -1.5805849   1
    4  528.2447144  358.1725587  122.7743586  -0.5000   0.5000  -0.5000   -1.5814931    1.5840683   -1.5805849   1
    4  527.8862352  355.3643120  121.5452933  -0.5000   0.5000  -0.5000   -1.5814931    1.5840683   -1.5805849   1
    5  455.0971437  145.1477813  251.2748583  -0.5000  -0.5000   0.5000   -1.5827186   -1.5842846    1.5808826   0
    5  456.9542384  143.4172303  253.5200209  -0.5000  -0.5000   0.5000   -1.5827186   -1.5842846    1.5808826   0
    5  457.6794267  142.2736248  253.2334394  -0.5000  -0.5000   0.5000   -1.5827186   -1.5842846    1.5808826   0
    5  458.7782366  141.7124827  251.9174068  -0.5000  -0.5000   0.5000   -1.5827186   -1.5842846    1.5808826   0
    5  459.8861147  140.5738639  250.3694141  -0.5000  -0.5000   0.5000   -1.5827186   -1.5842846    1.5808826   0
    5  459.9889030  138.8261324  248.9575271  -0.5000  -0.5000   0.5000   -1.5827186   -1.5842846    1.5808826   0
    5  459.4613545  136.7535900  247.8880876  -0.5000  -0.5000   0.5000   -1.5827186   -1.5842846    1.5808826   0
    5  458.9737617  134.8148586  246.2436290  -0.5000  -0.5000   0.5000   -1.5827186   -1.5842846    1.5808826   0
    5  458.7846869  133.6835923  243.8931417  -0.5000  -0.5000   0.5000   -1.5827186   -1.5842846    1.5808826   0
    5  458.3229226  132.4391778  242.0690525  -0.5000  -0.5000   0.5000   -1.5827186   -1.5842846    1.5808826   0
    5  456.8431239  131.2707479  241.4803668  -0.5000  -0.5000   0.5000   -1.5827186   -1.5842846    1.5808826   0
    5  454.8616494  131.3383325  240.8573914  -0.5000  -0.5000   0.5000   -1.5827186   -1.5842846    1.5808826   0
    5  453.5047928  132.5192012  239.7460777  -0.5000  -0.5000   0.5000   -1.5827186   -1.5842846    1.5808826   0
    5  452.6474491  134.4239747  239.2416797  -0.5000  -0.5000   0.5000   -1.5827186   -1.5842846    1.5808826   0
    5  451.6526293  136.3325256  239.7077626  -0.5000  -0.5000   0.5000   -1.5827186   -1.5842846    1.5808826   0
    5  450.9237593  138.0897411  240.8046707  -0.5000  -0.5000   0.5000   -1.5827186   -1.5842846    1.5808826   0
    5  450.4257408  140.2797548  241.6398988  -0.5000  -0.5000   0.5000   -1.5827186   -1.5842846    1.5808826   0
    5  449.9455508  142.4624814  242.2085689  -0.5000  -0.5000   0.5000   -1.5827186   -1.5842846    1.5808826   0
    5  450.1403356  143.9369516  243.3671463  -0.5000  -0.5000   0.5000   -1.5827186   -1.5842846    1.5808826   0
    5  450.9578457  144.7897855  245.0849492  -0.5000  -0.5000   0.5000   -1.5827186   -1.5842846    1.5808826   0
    5  451.7852175  144.5642244  246.7970169  -0.5000  -0.5000   0.5000   -1.5827186   -1.5842846    1.5808826   0
    5  452.9372381  144.0635135  248.5778781  -0.5000  -0.5000   0.5000   -1.5827186   -1.5842846    1.5808826   0
    5  455.0971437  145.1477813  251.2748583  -0.5000  -0.5000   0.5000   -1.5827186   -1.5842846    1.5808826   0
    6  175.3655548  267.5073193  452.1267760   0.5000   0.5000  -0.5000    1.5827186    1.5842846   -1.5808826   1
    6  176.4364138  265.9340931  454.2458679   0.5000   0.5000  -0.5000    1.5827186    1.5842846   -1.5808826   1
    6  177.3771832  265.0399155  456.4365541   0.5000   0.5000  -0.5000    1.5827186    1.5842846   -1.5808826   1
    6  177.7385361  266.1492956  458.5617959   0.5000   0.5000  -0.5000    1.5827186    1.5842846   -1.5808826   1
    6  178.0748375  268.5334353  460.2126991   0.5000   0.5000  -0.5000    1.5827186    1.5842846   -1.5808826   1
    6  178.8086262  270.8234035  461.6628429   0.5000   0.5000  -0.5000    1.5827186    1.5842846   -1.5808826   1
    6  179.4624741  272.2664284  463.8170205   0.5000   0.5000  -0.5000    1.5827186    1.5842846   -1.5808826   1
    6  179.1368173  273.8760621  465.8662625   0.5000   0.5000  -0.5000    1.5827186    1.5842846   -1.5808826   1
    6  178.0133704  275.7186631  466.7129154   0.5000   0.5000  -0.5000    1.5827186    1.5842846   -1.5808826   1
    6  176.9389707  277.5298404  466.8862724   0.5000   0.5000  -0.5000    1.5827186    1.5842846   -1.5808826   1
    6  176.3279111  279.6412827  467.2824086   0.5000   0.5000  -0.5000    1.5827186    1.5842846   -1.5808826   1
    6  175.8888198  281.6636894  468.0351055   0.5000   0.5000  -0.5000    1.5827186    1.5842846   -1.5808826   1
    6  176.1348679  283.5018823  468.7614555   0.5000   0.5000  -0.5000    1.5827186    1.5842846   -1.5808826   1
    6  177.4382025  284.9949036  469.7087908   0.5000   0.5000  -0.5000    1.5827186    1.5842846   -1.5808826   1
    6  178.8889041  286.4336378  471.0545832   0.5000   0.5000  -0.5000    1.5827186    1.5842846   -1.5808826   1
    6  180.3956626  288.0797916  472.0597315   0.5000   0.5000  -0.5000    1.5827186    1.5842846   -1.5808826   1
    6  182.6473416  289.4996830  472.6358132   0.5000   0.5000  -0.5000    1.5827186    1.5842846   -1.5808826   1
    6  185.1871069  290.5507128  473.1675087   0.5000   0.5000  -0.5000    1.5827186    1.5842846   -1.5808826   1
    6  187.5554810  290.7155000  473.5083027   0.5000   0.5000  -0.5000    1.5827186    1.5842846   -1.5808826   1
    6  189.8856415  290.0823799  473.8621227   0.5000   0.5000  -0.5000    1.5827186    1.5842846   -1.5808826   1
    6  191.7290854  290.0060118  474.9521373   0.5000   0.5000  -0.5000    1.5827186    1.5842846   -1.5808826   1
    6  192.9942476  291.1732537  476.2469262   0.5000   0.5000  -0.5000    1.5827186    1.5842846   -1.5808826   1
    6  194.2892108  292.3777695  476.9785977   0.5000   0.5000  -0.5000    1.5827186    1.5842846   -1.5808826   1
    6  196.2528968  292.4745505  477.7497950   0.5000   0.5000  -0.5000    1.5827186    1.5842846   -1.5808826   1
    6  199.0520416  291.9400643  478.4488655   0.5000   0.5000  -0.5000    1.5827186    1.5842846   -1.5808826   1
    6  201.3288436  291.1873003  478.8877532   0.5000   0.5000  -0.5000    1.5827186    1.5842846   -1.5808826   1
    6  202.0897531  289.9325742  479.7019408   0.5000   0.5000  -0.5000    1.5827186    1.5842846   -1.5808826   1
    6  202.6436896  288.4257688  480.5785344   0.5000   0.5000  -0.5000    1.5827186    1.5842846   -1.5808826   1
    6  203.9403506  287.5961932  480.5717685   0.5000   0.5000  -0.5000    1.5827186    1.5842846   -1.5808826   1
    6  204.9266362  287.3611074  479.5673409   0.5000   0.5000  -0.5000    1.5827186    1.5842846   -1.5808826   1
    6  205.0563898  286.5834269  478.2956478   0.5000   0.5000  -0.5000    1.5827186    1.5842846   -1.5808826   1
    6  204.7823334  285.5425555  476.8593018   0.5000   0.5000  -0.5000    1.5827186    1.5842846   -1.5808826   1
    6  204.1702941  284.7749965  474.9193394   0.5000   0.5000  -0.5000    1.5827186    1.5842846   -1.5808826   1
    6  203.7719111  283.4364529  472.8504775   0.5000   0.5000  -0.5000    1.5827186    1.5842846   -1.5808826   1
    6  203.7432037  281.7160420  470.9402805   0.5000   0.5000  -0.5000    1.5827186    1.5842846   -1.5808826   1
    6  203.6102824  280.0683949  469.4676814   0.5000   0.5000  -0.5000    1.5827186    1.5842846   -1.5808826   1
    6  203.7447361  277.7248494  468.5202775   0.5000   0.5000  -0.5000    1.5827186    1.5842846   -1.5808826   1
    6  204.9155926  275.6197241  467.6626263   0.5000   0.5000  -0.5000    1.5827186    1.5842846   -1.5808826   1
    6  206.8656150  274.5398267  467.2670242   0.5000   0.5000  -0.5000    1.5827186    1.5842846   -1.5808826   1
    6  208.3874149  273.1056107  467.5503312   0.5000   0.5000  -0.5000    1.5827186    1.5842846   -1.5808826   1
    6  209.2329680  271.4780498  468.3008436   0.5000   0.5000  -0.5000    1.5827186    1.5842846   -1.5808826   1
    6  210.5052320  270.7184723  469.5880830   0.5000   0.5000  -0.5000    1.5827186    1.5842846   -1.5808826   1
    6  212.7362064  270.3828563  471.0198676   0.5000   0.5000  -0.5000    1.5827186    1.5842846   -1.5808826   1
    6  214.8997815  269.6418675  472.3789769   0.5000   0.5000  -0.5000    1.5827186    1.5842846   -1.5808826   1
    6  216.1498847  268.1172334  473.6707951   0.5000   0.5000  -0.5000    1.5827186    1.5842846   -1.5808826   1
    6  216.3755318  266.0431286  474.1151025   0.5000   0.5000  -0.5000    1.5827186    1.5842846   -1.5808826   1