ITEM: TIMESTEP
0
ITEM: NUMBER OF ATOMS
7311
ITEM: BOX BOUNDS pp pp pp 
0.0 695.902602
0.0 696.523403
0.0 698.107292
ITEM: ATOMS id x y z tbx tby tbz sbx sby sbz loop
    0  551.6248167  426.6272941  651.2090431   0.5000   0.5000  -0.5000    1.5828690    1.5842857   -1.5808196   0
    0  550.9210763  426.0499867  649.1377973   0.5000   0.5000  -0.5000    1.5828690    1.5842857   -1.5808196   0
    0  551.3902533  424.5858995  648.5712034   0.5000   0.5000  -0.5000    1.5828690    1.5842857   -1.5808196   0
    0  551.9121855  423.0927644  648.2756213   0.5000   0.5000  -0.5000    1.5828690    1.5842857   -1.5808196   0
    0  551.7370578  421.2985645  648.1749666   0.5000   0.5000  -0.5000    1.5828690    1.5842857   -1.5808196   0
    0  552.1933232  418.8521616  648.3472323   0.5000   0.5000  -0.5000    1.5828690    1.5842857   -1.5808196   0
    0  554.0721036  416.9861048  648.3565394   0.5000   0.5000  -0.5000    1.5828690    1.5842857   -1.5808196   0
    0  556.2484015  416.4931293  649.1787016   0.5000   0.5000  -0.5000    1.5828690    1.5842857   -1.5808196   0
    0  557.0499292  416.9520869  651.2258304   0.5000   0.5000  -0.5000    1.5828690    1.5842857   -1.5808196   0
    0  556.7866063  418.2343942  652.9791738   0.5000   0.5000  -0.5000    1.5828690    1.5842857   -1.5808196   0
    0  556.1522898  419.7791690  654.0787254   0.5000   0.5000  -0.5000    1.5828690    1.5842857   -1.5808196   0
    0  554.9179406  421.0719740  654.8888969   0.5000   0.5000  -0.5000    1.5828690    1.5842857   -1.5808196   0
    0  553.7618350  422.2350418  655.5273685   0.5000   0.5000  -0.5000    1.5828690    1.5842857   -1.5808196   0
    0  552.9686045  423.8706202  654.8991334   0.5000   0.5000  -0.5000    1.5828690    1.5842857   -1.5808196   0
    0  551.6248167  426.6272941  651.2090431   0.5000   0.5000  -0.5000    1.5828690    1.5842857   -1.5808196   0
    1  101.4639008  289.4742872  615.7252443   0.5000   0.5000   0.5000    1.5785731    1.5799907    1.5833950   1
    1  102.9261171  288.3931647  615.3078714   0.5000   0.5000   0.5000    1.5785731    1.5799907    1.5833950   1
    1  104.8867630  286.7451925  615.3940213   0.5000   0.5000   0.5000    1.5785731    1.5799907    1.5833950   1
    1  106.1437819  285.4757814  616.5969591   0.5000   0.5000   0.5000    1.5785731    1.5799907    1.5833950   1
    1  105.7852465  284.3730810  617.8587584   0.5000   0.5000   0.5000    1.5785731    1.5799907    1.5833950   1
    1  104.6824866  283.5732096  619.3278892   0.5000   0.5000   0.5000    1.5785731    1.5799907    1.5833950   1
    1  104.0499787  283.1993195  621.4302818   0.5000   0.5000   0.5000    1.5785731    1.5799907    1.5833950   1
    1  103.5954791  282.3490295  623.1292026   0.5000   0.5000   0.5000    1.5785731    1.5799907    1.5833950   1
    1  102.7572417  280.8382907  624.1407465   0.5000   0.5000   0.5000    1.5785731    1.5799907    1.5833950   1
    1  101.3575594  279.5193691  625.3422978   0.5000   0.5000   0.5000    1.5785731    1.5799907    1.5833950   1
    1   99.8027916  278.6878693  626.8737948   0.5000   0.5000   0.5000    1.5785731    1.5799907    1.5833950   1
    1   97.9206047  278.7582395  627.9784362   0.5000   0.5000   0.5000    1.5785731    1.5799907    1.5833950   1
    1   96.1618198  280.0868519  628.2432140   0.5000   0.5000   0.5000    1.5785731    1.5799907    1.5833950   1
    1   95.5162460  282.1872979  627.6777010   0.5000   0.5000   0.5000    1.5785731    1.5799907    1.5833950   1
    1   95.1002892  283.9699676  626.6042615   0.5000   0.5000   0.5000    1.5785731    1.5799907    1.5833950   1
    1   93.8827266  285.0630966  625.7215316   0.5000   0.5000   0.5000    1.5785731    1.5799907    1.5833950   1
    1   92.3668814  286.2060091  624.8233278   0.5000   0.5000   0.5000    1.5785731    1.5799907    1.5833950   1
    1   91.4957929  287.6593293  623.1862544   0.5000   0.5000   0.5000    1.5785731    1.5799907    1.5833950   1
    1   91.3141901  289.4777463  621.2681936   0.5000   0.5000   0.5000    1.5785731    1.5799907    1.5833950   1
    1   91.7287052  291.5927143  619.6478076   0.5000   0.5000   0.5000    1.5785731    1.5799907    1.5833950   1
    1   93.3183709  292.9887919  618.1820419   0.5000   0.5000   0.5000    1.5785731    1.5799907    1.5833950   1
    1   95.2844265  292.8149380  617.0685130   0.5000   0.5000   0.5000    1.5785731    1.5799907    1.5833950   1
    1   97.1071189  291.8637680  616.6217321   0.5000   0.5000   0.5000    1.5785731    1.5799907    1.5833950   1
    1   99.1274903  291.1480111  616.3326308   0.5000   0.5000   0.5000    1.5785731    1.5799907    1.5833950   1
    1  100.3439950  290.5637829  616.0142797   0.5000   0.5000   0.5000    1.5785731    1.5799907    1.5833950   1
    1  101.4639007  289.4742872  615.7252443   0.5000   0.5000   0.5000    1.5785731    1.5799907    1.5833950   1
    2  386.7780923  580.7745612  692.1911831   0.5000  -0.5000  -0.5000    1.5856904   -1.5799365   -1.5834528   1
    2  386.3848439  580.1097746  691.0214191   0.5000  -0.5000  -0.5000    1.5856904   -1.5799365   -1.5834528   1
    2  385.0865752  579.1804892  689.7492411   0.5000  -0.5000  -0.5000    1.5856904   -1.5799365   -1.5834528   1
    2  383.3190013  577.7802973  689.1810003   0.5000  -0.5000  -0.5000    1.5856904   -1.5799365   -1.5834528   1
    2  382.4264739  575.6532553  689.3026438   0.5000  -0.5000  -0.5000    1.5856904   -1.5799365   -1.5834528   1
    2  382.3582809  573.7449148  690.5272482   0.5000  -0.5000  -0.5000    1.5856904   -1.5799365   -1.5834528   1
    2  382.2897699  572.2910522  692.1377440   0.5000  -0.5000  -0.5000    1.5856904   -1.5799365   -1.5834528   1
    2  381.9726410  570.0425300  692.8963102   0.5000  -0.5000  -0.5000    1.5856904   -1.5799365   -1.5834528   1
    2  381.9236382  567.1296565  693.2676519   0.5000  -0.5000  -0.5000    1.5856904   -1.5799365   -1.5834528   1
    2  382.5382939  565.2882688  694.0426086   0.5000  -0.5000  -0.5000    1.5856904   -1.5799365   -1.5834528   1
    2  384.0289221  565.0385331  694.9685485   0.5000  -0.5000  -0.5000    1.5856904   -1.5799365   -1.5834528   1
    2  385.9011166  565.5005598  695.9289154   0.5000  -0.5000  -0.5000    1.5856904   -1.5799365   -1.5834528   1
    2  387.2451650  566.4010269  697.1906166   0.5000  -0.5000  -0.5000    1.5856904   -1.5799365   -1.5834528   1
    2  388.0651526  568.4115644  698.0964181   0.5000  -0.5000  -0.5000    1.5856904   -1.5799365   -1.5834528   1
    2  388.2701519  571.3020134  698.2671194   0.5000  -0.5000  -0.5000    1.5856904   -1.5799365   -1.5834528   1
    2  387.8858371  573.4890032  697.5368138   0.5000  -0.5000  -0.5000    1.5856904   -1.5799365   -1.5834528   1
    2  387.4709507  575.1259375  696.1105009   0.5000  -0.5000  -0.5000    1.5856904   -1.5799365   -1.5834528   1
    2  387.1422715  576.9304354  694.4003480   0.5000  -0.5000  -0.5000    1.5856904   -1.5799365   -1.5834528   1
    2  387.0435794  577.9981338  692.4784075   0.5000  -0.5000  -0.5000    1.5856904   -1.5799365   -1.5834528   1
    2  387.0550903  578.8979793  691.7845503   0.5000  -0.5000  -0.5000    1.5856904   -1.5799365   -1.5834528   1
    2  386.7780923  580.7745612  692.1911831   0.5000  -0.5000  -0.5000    1.5856904   -1.5799365   -1.5834528   1
    3  412.5819375  531.4896771  633.8903854  -0.5000  -0.5000   0.5000   -1.5828690   -1.5842857    1.5808196   0
    3  413.4654369  529.0469767  632.2676979  -0.5000  -0.5000   0.5000   -1.5828690   -1.5842857    1.5808196   0
    3  415.0986686  527.5327558  632.2704676  -0.5000  -0.5000   0.5000   -1.5828690   -1.5842857    1.5808196   0
    3  416.8454487  526.1785600  632.4390218  -0.5000  -0.5000   0.5000   -1.5828690   -1.5842857    1.5808196   0
    3  417.9263243  524.7271767  631.9433498  -0.5000  -0.5000   0.5000   -1.5828690   -1.5842857    1.5808196   0
    3  418.3112096  522.8216747  630.5680999  -0.5000  -0.5000   0.5000   -1.5828690   -1.5842857    1.5808196   0
    3  418.6083244  520.5548631  629.2651236  -0.5000  -0.5000   0.5000   -1.5828690   -1.5842857    1.5808196   0
    3  419.4995363  519.6425128  628.6169249  -0.5000  -0.5000   0.5000   -1.5828690   -1.5842857    1.5808196   0
    3  420.7668141  520.1593640  627.5172223  -0.5000  -0.5000   0.5000   -1.5828690   -1.5842857    1.5808196   0
    3  421.9957947  519.9165694  625.9874521  -0.5000  -0.5000   0.5000   -1.5828690   -1.5842857    1.5808196   0
    3  423.0963479  518.7476326  624.4774008  -0.5000  -0.5000   0.5000   -1.5828690   -1.5842857    1.5808196   0
    3  424.2876466  517.8052984  623.1440970  -0.5000  -0.5000   0.5000   -1.5828690   -1.5842857    1.5808196   0
    3  426.3740491  517.1191736  622.1723469  -0.5000  -0.5000   0.5000   -1.5828690   -1.5842857    1.5808196   0
    3  428.9099282  516.6013581  621.4485350  -0.5000  -0.5000   0.5000   -1.5828690   -1.5842857    1.5808196   0
    3  430.6804410  515.8078669  621.2560832  -0.5000  -0.5000   0.5000   -1.5828690   -1.5842857    1.5808196   0
    3  432.0224896  514.7326307  621.8095193  -0.5000  -0.5000   0.5000   -1.5828690   -1.5842857    1.5808196   0
    3  433.4847339  514.2225184  622.6275655  -0.5000  -0.5000   0.5000   -1.5828690   -1.5842857    1.5808196   0
    3  435.2631638  514.1844903  623.1327064  -0.5000  -0.5000   0.5000   -1.5828690   -1.5842857    1.5808196   0
    3  437.5786591  514.4673604  623.1423460  -0.5000  -0.5000   0.5000   -1.5828690   -1.5842857    1.5808196   0
    3  439.8662342  514.4906196  623.3008150  -0.5000  -0.5000   0.5000   -1.5828690   -1.5842857    1.5808196   0
    3  441.9235818  513.7311629  623.8323712  -0.5000  -0.5000   0.5000   -1.5828690   -1.5842857    1.5808196   0
    3  444.1512121  512.5660339  623.7037223  -0.5000  -0.5000   0.5000   -1.5828690   -1.5842857    1.5808196   0
    3  446.3349341  510.9885332  622.8249986  -0.5000  -0.5000   0.5000   -1.5828690   -1.5842857    1.5808196   0
    3  447.8759899  509.7193887  621.6275135  -0.5000  -0.5000   0.5000   -1.5828690   -1.5842857    1.5808196   0
    3  449.1832806  509.3161610  620.3774940  -0.5000  -0.5000   0.5000   -1.5828690   -1.5842857    1.5808196   0
    3  451.0752951  509.0945158  620.2166207  -0.5000  -0.5000   0.5000   -1.5828690   -1.5842857    1.5808196   0
    3  453.2201220  508.8137278  621.2905433  -0.5000  -0.5000   0.5000   -1.5828690   -1.5842857    1.5808196   0
    3  455.4833662  508.5473977  622.2970532  -0.5000  -0.5000   0.5000   -1.5828690   -1.5842857    1.5808196   0
    3  457.5778591  507.9566268  622.1643583  -0.5000  -0.5000   0.5000   -1.5828690   -1.5842857    1.5808196   0
    3  459.2668457  507.0554264  621.5530465  -0.5000  -0.5000   0.5000   -1.5828690   -1.5842857    1.5808196   0
    3  461.3961229  506.2663236  621.7747501  -0.5000  -0.5000   0.5000   -1.5828690   -1.5842857    1.5808196   0
    3  463.9903107  505.7391449  622.2755052  -0.5000  -0.5000   0.5000   -1.5828690   -1.5842857    1.5808196   0
    3  466.4540209  505.6359483  622.6007030  -0.5000  -0.5000   0.5000   -1.5828690   -1.5842857    1.5808196   0
    3  468.3365487  506.4261696  623.3200323  -0.5000  -0.5000   0.5000   -1.5828690   -1.5842857    1.5808196   0
    3  469.1979991  507.9147324  624.8633522  -0.5000  -0.5000   0.5000   -1.5828690   -1.5842857    1.5808196   0
    3  469.0673947  509.6063586  626.9834330  -0.5000  -0.5000   0.5000   -1.5828690   -1.5842857    1.5808196   0
    3  468.9284792  511.5326835  628.7350224  -0.5000  -0.5000   0.5000   -1.5828690   -1.5842857    1.5808196   0
    3  469.4343085  512.9717089  630.4620444  -0.5000  -0.5000   0.5000   -1.5828690   -1.5842857    1.5808196   0
    3  470.3364115  513.4199391  632.4228787  -0.5000  -0.5000   0.5000   -1.5828690   -1.5842857    1.5808196   0
    3  471.4725398  514.0726145  633.7492672  -0.5000  -0.5000   0.5000   -1.5828690   -1.5842857    1.5808196   0
    3  472.6772571  515.4937974  634.6158522  -0.5000  -0.5000   0.5000   -1.5828690   -1.5842857    1.5808196   0
    3  473.9728640  516.7034297  635.8460138  -0.5000  -0.5000   0.5000   -1.5828690   -1.5842857    1.5808196   0
    3  475.2272618  517.5500702  637.1210086  -0.5000  -0.5000   0.5000   -1.5828690   -1.5842857    1.5808196   0
    3  476.4138628  518.6477834  638.1748355  -0.5000  -0.5000   0.5000   -1.5828690   -1.5842857    1.5808196   0
    3  478.2707966  519.6142197  639.2853377  -0.5000  -0.5000   0.5000   -1.5828690   -1.5842857    1.5808196   0
    3  480.7109684  519.1600065  639.6872271  -0.5000  -0.5000   0.5000   -1.5828690   -1.5842857    1.5808196   0
    3  482.1512374  516.9055856  639.2462924  -0.5000  -0.5000   0.5000   -1.5828690   -1.5842857    1.5808196   0
    3  482.0357447  514.6277443  638.7955006  -0.5000  -0.5000   0.5000   -1.5828690   -1.5842857    1.5808196   0
    3  482.0448775  513.7106658  638.2801833  -0.5000  -0.5000   0.5000   -1.5828690   -1.5842857    1.5808196   0
    3  483.1625038  513.4672906  636.9742277  -0.5000  -0.5000   0.5000   -1.5828690   -1.5842857    1.5808196   0
    3  483.8378262  512.8338289  635.0181545  -0.5000  -0.5000   0.5000   -1.5828690   -1.5842857    1.5808196   0
    3  483.4902434  511.7256018  632.9476098  -0.5000  -0.5000   0.5000   -1.5828690   -1.5842857    1.5808196   0
    3  483.2157213  510.6072209  630.6920745  -0.5000  -0.5000   0.5000   -1.5828690   -1.5842857    1.5808196   0
    3  483.7353317  509.6522505  628.5920670  -0.5000  -0.5000   0.5000   -1.5828690   -1.5842857    1.5808196   0
    3  484.7435657  508.7247963  626.7169725  -0.5000  -0.5000   0.5000   -1.5828690   -1.5842857    1.5808196   0
    3  485.1186672  508.2165518  624.6249900  -0.5000  -0.5000   0.5000   -1.5828690   -1.5842857    1.5808196   0
    3  485.0441917  508.5074161  622.4570170  -0.5000  -0.5000   0.5000   -1.5828690   -1.5842857    1.5808196   0
    3  484.8616344  508.5892889  620.3743303  -0.5000  -0.5000   0.5000   -1.5828690   -1.5842857    1.5808196   0
    3  484.5914195  507.5296856  618.7999878  -0.5000  -0.5000   0.5000   -1.5828690   -1.5842857    1.5808196   0
    3  485.2091069  506.0605954  617.8254109  -0.5000  -0.5000   0.5000   -1.5828690   -1.5842857    1.5808196   0
    3  486.4937045  505.0490286  616.5713008  -0.5000  -0.5000   0.5000   -1.5828690   -1.5842857    1.5808196   0
    3  487.5544631  503.9633484  615.1826502  -0.5000  -0.5000   0.5000   -1.5828690   -1.5842857    1.5808196   0
    3  488.1429364  502.7054448  614.0636008  -0.5000  -0.5000   0.5000   -1.5828690   -1.5842857    1.5808196   0
    3  487.8334853  502.0623176  612.1971706  -0.5000  -0.5000   0.5000   -1.5828690   -1.5842857    1.5808196   0
    3  487.0917140  501.6541763  609.4216370  -0.5000  -0.5000   0.5000   -1.5828690   -1.5842857    1.5808196   0
    3  486.8686826  500.6294505  606.9747630  -0.5000  -0.5000   0.5000   -1.5828690   -1.5842857    1.5808196   0
    3  486.8467485  499.7998871  604.8903454  -0.5000  -0.5000   0.5000   -1.5828690   -1.5842857    1.5808196   0
    3  486.4671790  499.9123622  602.2001987  -0.5000  -0.5000   0.5000   -1.5828690   -1.5842857    1.5808196   0
    3  486.2294843  500.1211873  599.4688982  -0.5000  -0.5000   0.5000   -1.5828690   -1.5842857    1.5808196   0
    3  485.7879502  500.0835359  598.2889885  -0.5000  -0.5000   0.5000   -1.5828690   -1.5842857    1.5808196   0
    3  484.2063620  500.3007671  598.5366539  -0.5000  -0.5000   0.5000   -1.5828690   -1.5842857    1.5808196   0
    3  482.1415206  500.8976645  598.6185378  -0.5000  -0.5000   0.5000   -1.5828690   -1.5842857    1.5808196   0
    3  480.5655751  501.7835968  597.7055516  -0.5000  -0.5000   0.5000   -1.5828690   -1.5842857    1.5808196   0
    3  479.1902243  502.9224932  596.4844916  -0.5000  -0.5000   0.5000   -1.5828690   -1.5842857    1.5808196   0
    3  477.0833868  504.0057961  595.6659499  -0.5000  -0.5000   0.5000   -1.5828690   -1.5842857    1.5808196   0
    3  474.9594792  504.3113970  594.5543032  -0.5000  -0.5000   0.5000   -1.5828690   -1.5842857    1.5808196   0
    3  473.8149698  503.5548773  592.6546510  -0.5000  -0.5000   0.5000   -1.5828690   -1.5842857    1.5808196   0
    3  473.0524966  502.7891060  590.7655807  -0.5000  -0.5000   0.5000   -1.5828690   -1.5842857    1.5808196   0
    3  473.0173488  503.0998727  589.2887418  -0.5000  -0.5000   0.5000   -1.5828690   -1.5842857    1.5808196   0
    3  473.8772942  503.7693204  587.7658643  -0.5000  -0.5000   0.5000   -1.5828690   -1.5842857    1.5808196   0
    3  474.2396142  503.2254285  586.6611483  -0.5000  -0.5000   0.5000   -1.5828690   -1.5842857    1.5808196   0
    3  474.1424943  501.5942069  586.7322914  -0.5000  -0.5000   0.5000   -1.5828690   -1.5842857    1.5808196   0
    3  475.0103419  499.8227666  586.7717916  -0.5000  -0.5000   0.5000   -1.5828690   -1.5842857    1.5808196   0
    3  476.8090690  498.3539790  585.9337749  -0.5000  -0.5000   0.5000   -1.5828690   -1.5842857    1.5808196   0
    3  478.5612735  497.4288956  584.9822353  -0.5000  -0.5000   0.5000   -1.5828690   -1.5842857    1.5808196   0
    3  480.2409326  496.8845474  584.6852918  -0.5000  -0.5000   0.5000   -1.5828690   -1.5842857    1.5808196   0
    3  481.3809193  495.8834091  585.2831567  -0.5000  -0.5000   0.5000   -1.5828690   -1.5842857    1.5808196   0
    3  481.4146619  494.0855646  585.9802471  -0.5000  -0.5000   0.5000   -1.5828690   -1.5842857    1.5808196   0
    3  481.7954524  493.0066697  586.0376252  -0.5000  -0.5000   0.5000   -1.5828690   -1.5842857    1.5808196   0
    3  482.9728258  493.3637930  586.5491754  -0.5000  -0.5000   0.5000   -1.5828690   -1.5842857    1.5808196   0
    3  484.4931351  494.0713358  588.1426856  -0.5000  -0.5000   0.5000   -1.5828690   -1.5842857    1.5808196   0
    3  486.6735652  494.1278852  588.9909359  -0.5000  -0.5000   0.5000   -1.5828690   -1.5842857    1.5808196   0
    3  488.7017226  493.2742720  588.5625176  -0.5000  -0.5000   0.5000   -1.5828690   -1.5842857    1.5808196   0
    3  490.7346133  492.0491104  588.0974000  -0.5000  -0.5000   0.5000   -1.5828690   -1.5842857    1.5808196   0
    3  492.8387888  491.2511406  587.4889409  -0.5000  -0.5000   0.5000   -1.5828690   -1.5842857    1.5808196   0
    3  494.4545116  490.9250977  586.6689271  -0.5000  -0.5000   0.5000   -1.5828690   -1.5842857    1.5808196   0
    3  496.2322912  490.3033756  586.3299012  -0.5000  -0.5000   0.5000   -1.5828690   -1.5842857    1.5808196   0
    3  498.0329376  489.5255048  585.8792643  -0.5000  -0.5000   0.5000   -1.5828690   -1.5842857    1.5808196   0
    3  499.1449767  488.9647751  584.6680611  -0.5000  -0.5000   0.5000   -1.5828690   -1.5842857    1.5808196   0
    3  499.9590627  488.2974174  583.1497235  -0.5000  -0.5000   0.5000   -1.5828690   -1.5842857    1.5808196   0
    3  500.4991192  487.4743477  582.0989907  -0.5000  -0.5000   0.5000   -1.5828690   -1.5842857    1.5808196   0
    3  499.7168477  487.1616617  581.1394862  -0.5000  -0.5000   0.5000   -1.5828690   -1.5842857    1.5808196   0
    3  498.4373160  487.5170220  579.4093801  -0.5000  -0.5000   0.5000   -1.5828690   -1.5842857    1.5808196   0
    3  497.6165611  487.4838361  577.5706607  -0.5000  -0.5000   0.5000   -1.5828690   -1.5842857    1.5808196   0
    3  497.2699716  487.1712602  576.0125823  -0.5000  -0.5000   0.5000   -1.5828690   -1.5842857    1.5808196   0
    3  497.0877974  487.1931928  574.3221377  -0.5000  -0.5000   0.5000   -1.5828690   -1.5842857    1.5808196   0
    3  496.0595901  487.1329041  572.0646702  -0.5000  -0.5000   0.5000   -1.5828690   -1.5842857    1.5808196   0
    3  494.8536642  486.8604539  569.2170851  -0.5000  -0.5000   0.5000   -1.5828690   -1.5842857    1.5808196   0
    3  494.0511295  486.5910677  566.8813945  -0.5000  -0.5000   0.5000   -1.5828690   -1.5842857    1.5808196   0
    3  492.9965036  486.3581617  564.9961526  -0.5000  -0.5000   0.5000   -1.5828690   -1.5842857    1.5808196   0
    3  492.1350837  485.6134272  562.9484446  -0.5000  -0.5000   0.5000   -1.5828690   -1.5842857    1.5808196   0
    3  491.7036904  484.1278782  561.2146711  -0.5000  -0.5000   0.5000   -1.5828690   -1.5842857    1.5808196   0
    3  491.1227915  483.1125889  559.4121621  -0.5000  -0.5000   0.5000   -1.5828690   -1.5842857    1.5808196   0
    3  490.6166091  482.8442677  556.6420495  -0.5000  -0.5000   0.5000   -1.5828690   -1.5842857    1.5808196   0
    3  490.7542367  482.6477088  553.6458050  -0.5000  -0.5000   0.5000   -1.5828690   -1.5842857    1.5808196   0
    3  491.7167951  483.0318677  551.6727079  -0.5000  -0.5000   0.5000   -1.5828690   -1.5842857    1.5808196   0
    3  492.3026768  483.6507192  549.9712761  -0.5000  -0.5000   0.5000   -1.5828690   -1.5842857    1.5808196   0
    3  491.3363853  483.6444522  548.5496743  -0.5000  -0.5000   0.5000   -1.5828690   -1.5842857    1.5808196   0
    3  490.3080561  482.9783167  548.8334270  -0.5000  -0.5000   0.5000   -1.5828690   -1.5842857    1.5808196   0
    3  490.8112391  481.2640305  550.4500890  -0.5000  -0.5000   0.5000   -1.5828690   -1.5842857    1.5808196   0
    3  492.2591207  479.5534638  551.3447095  -0.5000  -0.5000   0.5000   -1.5828690   -1.5842857    1.5808196   0
    3  493.9392321  479.2035180  550.4610498  -0.5000  -0.5000   0.5000   -1.5828690   -1.5842857    1.5808196   0
    3  495.7753237  479.4197808  548.9099293  -0.5000  -0.5000   0.5000   -1.5828690   -1.5842857    1.5808196   0
    3  497.4616098  479.0002055  547.6308883  -0.5000  -0.5000   0.5000   -1.5828690   -1.5842857    1.5808196   0
    3  498.5938392  477.6422503  546.5850831  -0.5000  -0.5000   0.5000   -1.5828690   -1.5842857    1.5808196   0
    3  499.5940514  475.8331871  545.8414624  -0.5000  -0.5000   0.5000   -1.5828690   -1.5842857    1.5808196   0
    3  501.0324515  474.6584776  545.8203721  -0.5000  -0.5000   0.5000   -1.5828690   -1.5842857    1.5808196   0
    3  501.5940637  474.3821084  545.6293807  -0.5000  -0.5000   0.5000   -1.5828690   -1.5842857    1.5808196   0
    3  500.7440357  474.0317229  543.8559212  -0.5000  -0.5000   0.5000   -1.5828690   -1.5842857    1.5808196   0
    3  500.2340161  473.5569732  541.1195706  -0.5000  -0.5000   0.5000   -1.5828690   -1.5842857    1.5808196   0
    3  500.5082764  473.4229242  538.5130939  -0.5000  -0.5000   0.5000   -1.5828690   -1.5842857    1.5808196   0
    3  501.0795634  473.4488423  536.3342231  -0.5000  -0.5000   0.5000   -1.5828690   -1.5842857    1.5808196   0
    3  501.8808968  473.1238758  534.3780373  -0.5000  -0.5000   0.5000   -1.5828690   -1.5842857    1.5808196   0
    3  502.5256288  472.5011870  532.5336486  -0.5000  -0.5000   0.5000   -1.5828690   -1.5842857    1.5808196   0
    3  502.9856572  471.7574179  531.0731468  -0.5000  -0.5000   0.5000   -1.5828690   -1.5842857    1.5808196   0
    3  503.3106513  470.8914451  529.2329858  -0.5000  -0.5000   0.5000   -1.5828690   -1.5842857    1.5808196   0
    3  502.8804286  470.4923086  526.6307269  -0.5000  -0.5000   0.5000   -1.5828690   -1.5842857    1.5808196   0
    3  501.8289290  470.6111801  524.2951908  -0.5000  -0.5000   0.5000   -1.5828690   -1.5842857    1.5808196   0
    3  500.9021879  471.2086887  522.2432702  -0.5000  -0.5000   0.5000   -1.5828690   -1.5842857    1.5808196   0
    3  499.6621732  472.1364699  520.3503364  -0.5000  -0.5000   0.5000   -1.5828690   -1.5842857    1.5808196   0
    3  498.4757175  473.0756876  519.1097922  -0.5000  -0.5000   0.5000   -1.5828690   -1.5842857    1.5808196   0
    3  497.9254859  474.2707417  518.4816598  -0.5000  -0.5000   0.5000   -1.5828690   -1.5842857    1.5808196   0
    3  497.0585649  475.2631483  517.7867736  -0.5000  -0.5000   0.5000   -1.5828690   -1.5842857    1.5808196   0
    3  496.3196294  474.8535119  516.7862431  -0.5000  -0.5000   0.5000   -1.5828690   -1.5842857    1.5808196   0
    3  496.6237000  473.3508021  516.1135637  -0.5000  -0.5000   0.5000   -1.5828690   -1.5842857    1.5808196   0
    3  497.0377387  472.3042958  515.2092522  -0.5000  -0.5000   0.5000   -1.5828690   -1.5842857    1.5808196   0
    3  496.5547706  471.5767727  513.6052215  -0.5000  -0.5000   0.5000   -1.5828690   -1.5842857    1.5808196   0
    3  495.3131961  470.7216459  512.0138901  -0.5000  -0.5000   0.5000   -1.5828690   -1.5842857    1.5808196   0
    3  493.8785990  470.8450303  510.5600500  -0.5000  -0.5000   0.5000   -1.5828690   -1.5842857    1.5808196   0
    3  492.5497183  472.3931229  509.2868250  -0.5000  -0.5000   0.5000   -1.5828690   -1.5842857    1.5808196   0
    3  491.3128570  474.2472096  508.0529361  -0.5000  -0.5000   0.5000   -1.5828690   -1.5842857    1.5808196   0
    3  490.0093585  475.6457039  506.8421165  -0.5000  -0.5000   0.5000   -1.5828690   -1.5842857    1.5808196   0
    3  488.6347364  476.6771229  505.8481517  -0.5000  -0.5000   0.5000   -1.5828690   -1.5842857    1.5808196   0
    3  487.4356969  477.6857087  505.2681560  -0.5000  -0.5000   0.5000   -1.5828690   -1.5842857    1.5808196   0
    3  486.6812829  479.5765859  505.3671245  -0.5000  -0.5000   0.5000   -1.5828690   -1.5842857    1.5808196   0
    3  486.4216292  482.2747606  506.0562721  -0.5000  -0.5000   0.5000   -1.5828690   -1.5842857    1.5808196   0
    3  486.0438309  484.2617403  507.1831198  -0.5000  -0.5000   0.5000   -1.5828690   -1.5842857    1.5808196   0
    3  485.0690430  485.3404744  507.6401976  -0.5000  -0.5000   0.5000   -1.5828690   -1.5842857    1.5808196   0
    3  483.8756050  486.6010538  506.6360510  -0.5000  -0.5000   0.5000   -1.5828690   -1.5842857    1.5808196   0
    3  482.4678415  488.1775125  505.1437709  -0.5000  -0.5000   0.5000   -1.5828690   -1.5842857    1.5808196   0
    3  480.3914533  489.0306617  504.4516141  -0.5000  -0.5000   0.5000   -1.5828690   -1.5842857    1.5808196   0
    3  479.0191789  489.3770000  504.4747497  -0.5000  -0.5000   0.5000   -1.5828690   -1.5842857    1.5808196   0
    3  479.4866028  490.6478062  504.8140720  -0.5000  -0.5000   0.5000   -1.5828690   -1.5842857    1.5808196   0
    3  480.0983135  492.5001151  506.1171322  -0.5000  -0.5000   0.5000   -1.5828690   -1.5842857    1.5808196   0
    3  480.2835370  493.7950052  508.2114870  -0.5000  -0.5000   0.5000   -1.5828690   -1.5842857    1.5808196   0
    3  480.7451306  494.2455654  510.6098470  -0.5000  -0.5000   0.5000   -1.5828690   -1.5842857    1.5808196   0
    3  481.1319734  494.1952312  512.9537263  -0.5000  -0.5000   0.5000   -1.5828690   -1.5842857    1.5808196   0
    3  481.2194853  494.0575437  514.7952124  -0.5000  -0.5000   0.5000   -1.5828690   -1.5842857    1.5808196   0
    3  481.0281519  494.7288369  516.3971510  -0.5000  -0.5000   0.5000   -1.5828690   -1.5842857    1.5808196   0
    3  481.0265501  496.7971184  517.7401331  -0.5000  -0.5000   0.5000   -1.5828690   -1.5842857    1.5808196   0
    3  481.6648570  499.0329899  518.6615713  -0.5000  -0.5000   0.5000   -1.5828690   -1.5842857    1.5808196   0
    3  481.7466268  500.7715275  519.4499546  -0.5000  -0.5000   0.5000   -1.5828690   -1.5842857    1.5808196   0
    3  481.1120587  502.5232007  520.4471161  -0.5000  -0.5000   0.5000   -1.5828690   -1.5842857    1.5808196   0
    3  481.1397752  504.4095068  521.5169196  -0.5000  -0.5000   0.5000   -1.5828690   -1.5842857    1.5808196   0
    3  481.0363670  505.9623055  522.1531874  -0.5000  -0.5000   0.5000   -1.5828690   -1.5842857    1.5808196   0
    3  479.7489360  506.3800299  521.8600639  -0.5000  -0.5000   0.5000   -1.5828690   -1.5842857    1.5808196   0
    3  478.0394508  505.9695708  520.7960072  -0.5000  -0.5000   0.5000   -1.5828690   -1.5842857    1.5808196   0
    3  476.6737218  505.8256093  519.2832874  -0.5000  -0.5000   0.5000   -1.5828690   -1.5842857    1.5808196   0
    3  475.6521129  505.6618924  517.4388484  -0.5000  -0.5000   0.5000   -1.5828690   -1.5842857    1.5808196   0
    3  474.9856792  505.1351491  515.1746004  -0.5000  -0.5000   0.5000   -1.5828690   -1.5842857    1.5808196   0
    3  474.4063879  505.0999585  512.8509123  -0.5000  -0.5000   0.5000   -1.5828690   -1.5842857    1.5808196   0
    3  473.0610881  505.7040572  511.6027824  -0.5000  -0.5000   0.5000   -1.5828690   -1.5842857    1.5808196   0
    3  470.8453349  506.6729732  511.1305959  -0.5000  -0.5000   0.5000   -1.5828690   -1.5842857    1.5808196   0
    3  469.0415065  508.1499920  511.0030446  -0.5000  -0.5000   0.5000   -1.5828690   -1.5842857    1.5808196   0
    3  468.5732093  509.9387548  511.3263586  -0.5000  -0.5000   0.5000   -1.5828690   -1.5842857    1.5808196   0
    3  468.4954023  511.4467915  512.1174050  -0.5000  -0.5000   0.5000   -1.5828690   -1.5842857    1.5808196   0
    3  467.7348943  512.2477091  513.0717777  -0.5000  -0.5000   0.5000   -1.5828690   -1.5842857    1.5808196   0
    3  466.2953495  512.7625979  512.9549947  -0.5000  -0.5000   0.5000   -1.5828690   -1.5842857    1.5808196   0
    3  464.4683240  513.7877277  512.0578530  -0.5000  -0.5000   0.5000   -1.5828690   -1.5842857    1.5808196   0
    3  462.9557369  515.6378928  511.3762433  -0.5000  -0.5000   0.5000   -1.5828690   -1.5842857    1.5808196   0
    3  462.5946690  517.5122726  511.3117510  -0.5000  -0.5000   0.5000   -1.5828690   -1.5842857    1.5808196   0
    3  462.1002183  518.4893685  512.2543617  -0.5000  -0.5000   0.5000   -1.5828690   -1.5842857    1.5808196   0
    3  460.9376926  519.0442898  512.7119032  -0.5000  -0.5000   0.5000   -1.5828690   -1.5842857    1.5808196   0
    3  461.1288014  519.8022243  511.3160771  -0.5000  -0.5000   0.5000   -1.5828690   -1.5842857    1.5808196   0
    3  462.0694855  520.0407952  509.2497458  -0.5000  -0.5000   0.5000   -1.5828690   -1.5842857    1.5808196   0
    3  461.8728375  519.3350390  507.3446085  -0.5000  -0.5000   0.5000   -1.5828690   -1.5842857    1.5808196   0
    3  461.1527381  518.8669070  505.2296242  -0.5000  -0.5000   0.5000   -1.5828690   -1.5842857    1.5808196   0