ITEM: TIMESTEP
0
ITEM: NUMBER OF ATOMS
8942
ITEM: BOX BOUNDS pp pp pp 
0.0 695.950506
0.0 696.505788
0.0 697.989909
ITEM: ATOMS id x y z tbx tby tbz sbx sby sbz loop
    0  624.1542143  608.1140714  544.4477857   0.5000  -0.5000  -0.5000    1.5821712   -1.5810698   -1.5827195   0
    0  623.0075147  605.1533637  543.7536900   0.5000  -0.5000  -0.5000    1.5821712   -1.5810698   -1.5827195   0
    0  621.7890180  603.7460158  544.3343422   0.5000  -0.5000  -0.5000    1.5821712   -1.5810698   -1.5827195   0
    0  620.5828972  602.8676323  545.4167813   0.5000  -0.5000  -0.5000    1.5821712   -1.5810698   -1.5827195   0
    0  619.2228213  601.7172031  546.3086675   0.5000  -0.5000  -0.5000    1.5821712   -1.5810698   -1.5827195   0
    0  618.3148217  600.1979259  547.4992404   0.5000  -0.5000  -0.5000    1.5821712   -1.5810698   -1.5827195   0
    0  618.1389778  598.4211558  548.9941753   0.5000  -0.5000  -0.5000    1.5821712   -1.5810698   -1.5827195   0
    0  618.4057434  597.2494991  550.9640017   0.5000  -0.5000  -0.5000    1.5821712   -1.5810698   -1.5827195   0
    0  618.6349966  597.0033466  553.6593198   0.5000  -0.5000  -0.5000    1.5821712   -1.5810698   -1.5827195   0
    0  618.7721467  596.9429558  556.5444315   0.5000  -0.5000  -0.5000    1.5821712   -1.5810698   -1.5827195   0
    0  619.4323102  596.3223103  558.6130107   0.5000  -0.5000  -0.5000    1.5821712   -1.5810698   -1.5827195   0
    0  620.0600686  595.3804780  560.2585113   0.5000  -0.5000  -0.5000    1.5821712   -1.5810698   -1.5827195   0
    0  619.8792225  594.3237145  562.2731820   0.5000  -0.5000  -0.5000    1.5821712   -1.5810698   -1.5827195   0
    0  619.6921979  593.2944038  564.6549008   0.5000  -0.5000  -0.5000    1.5821712   -1.5810698   -1.5827195   0
    0  620.8728836  593.0068553  566.7085578   0.5000  -0.5000  -0.5000    1.5821712   -1.5810698   -1.5827195   0
    0  622.9981345  593.6519485  567.5251457   0.5000  -0.5000  -0.5000    1.5821712   -1.5810698   -1.5827195   0
    0  624.2572431  594.7459550  567.8999735   0.5000  -0.5000  -0.5000    1.5821712   -1.5810698   -1.5827195   0
    0  624.7396308  595.8468532  567.8998994   0.5000  -0.5000  -0.5000    1.5821712   -1.5810698   -1.5827195   0
    0  625.2767692  596.9612123  567.3053764   0.5000  -0.5000  -0.5000    1.5821712   -1.5810698   -1.5827195   0
    0  625.6943252  598.0114224  566.7538704   0.5000  -0.5000  -0.5000    1.5821712   -1.5810698   -1.5827195   0
    0  625.8703572  599.2535713  566.1271429   0.5000  -0.5000  -0.5000    1.5821712   -1.5810698   -1.5827195   0
    1  531.1958743  220.9486382  338.8181894   0.5000  -0.5000  -0.5000    1.5821712   -1.5810698   -1.5827195   1
    1  531.1006570  222.0055971  337.6985328   0.5000  -0.5000  -0.5000    1.5821712   -1.5810698   -1.5827195   1
    1  531.4774102  223.1010310  335.8848385   0.5000  -0.5000  -0.5000    1.5821712   -1.5810698   -1.5827195   1
    1  530.2957441  223.5151747  333.8945652   0.5000  -0.5000  -0.5000    1.5821712   -1.5810698   -1.5827195   1
    1  528.2124425  223.9767338  332.4528884   0.5000  -0.5000  -0.5000    1.5821712   -1.5810698   -1.5827195   1
    1  527.1868938  224.8966581  331.0058695   0.5000  -0.5000  -0.5000    1.5821712   -1.5810698   -1.5827195   1
    1  526.0144978  225.4549059  329.1817313   0.5000  -0.5000  -0.5000    1.5821712   -1.5810698   -1.5827195   1
    1  523.8667061  225.0885776  327.8429214   0.5000  -0.5000  -0.5000    1.5821712   -1.5810698   -1.5827195   1
    1  522.1700793  223.9078383  327.4730571   0.5000  -0.5000  -0.5000    1.5821712   -1.5810698   -1.5827195   1
    1  520.8691129  222.3681165  327.3640277   0.5000  -0.5000  -0.5000    1.5821712   -1.5810698   -1.5827195   1
    1  519.6229412  220.8653664  326.8680075   0.5000  -0.5000  -0.5000    1.5821712   -1.5810698   -1.5827195   1
    1  519.0352963  219.1797606  326.7220867   0.5000  -0.5000  -0.5000    1.5821712   -1.5810698   -1.5827195   1
    1  518.4519682  217.6837455  327.2700064   0.5000  -0.5000  -0.5000    1.5821712   -1.5810698   -1.5827195   1
    1  517.1819630  216.2801264  327.7148490   0.5000  -0.5000  -0.5000    1.5821712   -1.5810698   -1.5827195   1
    1  516.6557064  214.4838963  328.1000227   0.5000  -0.5000  -0.5000    1.5821712   -1.5810698   -1.5827195   1
    1  517.8480617  213.2020995  329.0931123   0.5000  -0.5000  -0.5000    1.5821712   -1.5810698   -1.5827195   1
    1  519.5223857  212.6406333  330.6750370   0.5000  -0.5000  -0.5000    1.5821712   -1.5810698   -1.5827195   1
    1  520.5831673  212.1250706  332.5390602   0.5000  -0.5000  -0.5000    1.5821712   -1.5810698   -1.5827195   1
    1  521.8865705  211.7773031  334.3900226   0.5000  -0.5000  -0.5000    1.5821712   -1.5810698   -1.5827195   1
    1  523.9788677  211.7348547  335.9330557   0.5000  -0.5000  -0.5000    1.5821712   -1.5810698   -1.5827195   1
    1  525.6970164  212.3016390  337.1021304   0.5000  -0.5000  -0.5000    1.5821712   -1.5810698   -1.5827195   1
    1  526.4640063  214.0543102  337.3770878   0.5000  -0.5000  -0.5000    1.5821712   -1.5810698   -1.5827195   1
    1  527.2167737  216.4261193  336.8589559   0.5000  -0.5000  -0.5000    1.5821712   -1.5810698   -1.5827195   1
    1  528.8625809  218.3019629  336.7052993   0.5000  -0.5000  -0.5000    1.5821712   -1.5810698   -1.5827195   1
    1  530.3781908  219.4285404  337.4472914   0.5000  -0.5000  -0.5000    1.5821712   -1.5810698   -1.5827195   1
    1  531.1958745  220.9486383  338.8181894   0.5000  -0.5000  -0.5000    1.5821712   -1.5810698   -1.5827195   1
    2  479.6338074  268.8010037   90.7467119  -0.5000   0.5000   0.5000   -1.5821712    1.5810698    1.5827195   0
    2  476.8017565  268.8699419   89.8326543  -0.5000   0.5000   0.5000   -1.5821712    1.5810698    1.5827195   0
    2  474.2411210  268.6872335   89.2453822  -0.5000   0.5000   0.5000   -1.5821712    1.5810698    1.5827195   0
    2  472.0250900  269.0993998   89.6378532  -0.5000   0.5000   0.5000   -1.5821712    1.5810698    1.5827195   0
    2  469.8347966  270.0646072   90.6811499  -0.5000   0.5000   0.5000   -1.5821712    1.5810698    1.5827195   0
    2  467.6895270  270.2344053   91.6900504  -0.5000   0.5000   0.5000   -1.5821712    1.5810698    1.5827195   0
    2  466.0564796  269.6944939   92.9964567  -0.5000   0.5000   0.5000   -1.5821712    1.5810698    1.5827195   0
    2  464.5867731  269.4196931   94.5238465  -0.5000   0.5000   0.5000   -1.5821712    1.5810698    1.5827195   0
    2  462.7684817  269.2264492   96.0613167  -0.5000   0.5000   0.5000   -1.5821712    1.5810698    1.5827195   0
    2  460.6564253  269.0092210   97.4393139  -0.5000   0.5000   0.5000   -1.5821712    1.5810698    1.5827195   0
    2  458.5816404  268.5254388   98.2874827  -0.5000   0.5000   0.5000   -1.5821712    1.5810698    1.5827195   0
    2  456.8476774  267.7489065   98.9840206  -0.5000   0.5000   0.5000   -1.5821712    1.5810698    1.5827195   0
    2  455.3058901  267.4023940   99.5277179  -0.5000   0.5000   0.5000   -1.5821712    1.5810698    1.5827195   0
    2  453.5876289  267.3606926   99.9694635  -0.5000   0.5000   0.5000   -1.5821712    1.5810698    1.5827195   0
    2  451.6655519  267.4753567  100.3877174  -0.5000   0.5000   0.5000   -1.5821712    1.5810698    1.5827195   0
    2  450.0799936  267.2573635  100.6539121  -0.5000   0.5000   0.5000   -1.5821712    1.5810698    1.5827195   0
    2  449.3420557  266.1959160  101.2783279  -0.5000   0.5000   0.5000   -1.5821712    1.5810698    1.5827195   0
    2  448.3606799  264.9868457  102.2726831  -0.5000   0.5000   0.5000   -1.5821712    1.5810698    1.5827195   0
    2  446.1102430  263.9235180  103.1655018  -0.5000   0.5000   0.5000   -1.5821712    1.5810698    1.5827195   0
    2  443.8303947  263.3104773  104.1262063  -0.5000   0.5000   0.5000   -1.5821712    1.5810698    1.5827195   0
    2  442.5564970  263.2773215  105.9861312  -0.5000   0.5000   0.5000   -1.5821712    1.5810698    1.5827195   0
    2  442.2996105  263.1064674  108.5426250  -0.5000   0.5000   0.5000   -1.5821712    1.5810698    1.5827195   0
    2  442.6475894  262.7041572  111.1140055  -0.5000   0.5000   0.5000   -1.5821712    1.5810698    1.5827195   0
    2  443.0846757  262.2411816  113.7330921  -0.5000   0.5000   0.5000   -1.5821712    1.5810698    1.5827195   0
    2  443.6603212  261.4759598  115.9889878  -0.5000   0.5000   0.5000   -1.5821712    1.5810698    1.5827195   0
    2  444.1163330  260.6165065  117.8370212  -0.5000   0.5000   0.5000   -1.5821712    1.5810698    1.5827195   0
    2  443.8647730  259.7521892  119.1975656  -0.5000   0.5000   0.5000   -1.5821712    1.5810698    1.5827195   0
    2  442.9255923  258.3932940  119.8394755  -0.5000   0.5000   0.5000   -1.5821712    1.5810698    1.5827195   0
    2  441.8059665  256.7936261  120.4854480  -0.5000   0.5000   0.5000   -1.5821712    1.5810698    1.5827195   0
    2  441.3343836  255.3461888  121.4427976  -0.5000   0.5000   0.5000   -1.5821712    1.5810698    1.5827195   0
    2  441.8980358  254.1138694  123.0401960  -0.5000   0.5000   0.5000   -1.5821712    1.5810698    1.5827195   0
    2  442.1719817  253.2638048  125.4592811  -0.5000   0.5000   0.5000   -1.5821712    1.5810698    1.5827195   0
    2  441.1626813  252.1837687  127.3627289  -0.5000   0.5000   0.5000   -1.5821712    1.5810698    1.5827195   0
    2  439.3043903  250.9584151  127.7315604  -0.5000   0.5000   0.5000   -1.5821712    1.5810698    1.5827195   0
    2  437.4009181  250.5047816  126.8077653  -0.5000   0.5000   0.5000   -1.5821712    1.5810698    1.5827195   0
    2  435.9400634  250.2468789  125.1250387  -0.5000   0.5000   0.5000   -1.5821712    1.5810698    1.5827195   0
    2  434.3612687  249.8854906  123.9594850  -0.5000   0.5000   0.5000   -1.5821712    1.5810698    1.5827195   0
    2  432.4345315  249.2156203  124.0717345  -0.5000   0.5000   0.5000   -1.5821712    1.5810698    1.5827195   0
    2  430.4204842  247.8408313  124.6132919  -0.5000   0.5000   0.5000   -1.5821712    1.5810698    1.5827195   0
    2  428.6676603  246.8525097  125.5778333  -0.5000   0.5000   0.5000   -1.5821712    1.5810698    1.5827195   0
    2  428.0287963  246.1584263  127.4784952  -0.5000   0.5000   0.5000   -1.5821712    1.5810698    1.5827195   0
    2  428.2748123  245.0750254  129.7987288  -0.5000   0.5000   0.5000   -1.5821712    1.5810698    1.5827195   0
    2  428.1680224  243.8583683  131.8064727  -0.5000   0.5000   0.5000   -1.5821712    1.5810698    1.5827195   0
    2  427.4840500  242.3618294  133.3787504  -0.5000   0.5000   0.5000   -1.5821712    1.5810698    1.5827195   0
    2  426.3493583  240.9550734  135.0007043  -0.5000   0.5000   0.5000   -1.5821712    1.5810698    1.5827195   0
    2  424.6575212  240.0422246  136.4074959  -0.5000   0.5000   0.5000   -1.5821712    1.5810698    1.5827195   0
    2  423.6896907  239.4736541  137.3886400  -0.5000   0.5000   0.5000   -1.5821712    1.5810698    1.5827195   0
    2  424.4608232  239.0217072  138.4960847  -0.5000   0.5000   0.5000   -1.5821712    1.5810698    1.5827195   0
    2  425.4967670  238.2231311  139.7951864  -0.5000   0.5000   0.5000   -1.5821712    1.5810698    1.5827195   0
    2  425.1224514  237.3164537  141.4925118  -0.5000   0.5000   0.5000   -1.5821712    1.5810698    1.5827195   0
    2  423.8944432  236.3136833  143.5413093  -0.5000   0.5000   0.5000   -1.5821712    1.5810698    1.5827195   0
    2  423.4701588  234.9854907  145.8346459  -0.5000   0.5000   0.5000   -1.5821712    1.5810698    1.5827195   0
    2  423.7155338  233.9046708  148.6091912  -0.5000   0.5000   0.5000   -1.5821712    1.5810698    1.5827195   0
    2  423.7068611  232.8281166  150.9548723  -0.5000   0.5000   0.5000   -1.5821712    1.5810698    1.5827195   0
    2  424.1305474  232.0442666  152.3789731  -0.5000   0.5000   0.5000   -1.5821712    1.5810698    1.5827195   0
    2  425.3293675  232.2518320  153.9704534  -0.5000   0.5000   0.5000   -1.5821712    1.5810698    1.5827195   0
    2  426.2527721  232.9304418  156.1168911  -0.5000   0.5000   0.5000   -1.5821712    1.5810698    1.5827195   0
    2  427.1764935  234.0841502  157.6069926  -0.5000   0.5000   0.5000   -1.5821712    1.5810698    1.5827195   0
    2  428.2154650  235.7851785  158.0996164  -0.5000   0.5000   0.5000   -1.5821712    1.5810698    1.5827195   0
    2  427.9638341  237.5054435  158.2009447  -0.5000   0.5000   0.5000   -1.5821712    1.5810698    1.5827195   0
    2  427.2158539  238.6244689  157.3853117  -0.5000   0.5000   0.5000   -1.5821712    1.5810698    1.5827195   0
    2  427.1782629  239.5002746  155.6992405  -0.5000   0.5000   0.5000   -1.5821712    1.5810698    1.5827195   0
    2  427.2210815  241.5260959  154.3550266  -0.5000   0.5000   0.5000   -1.5821712    1.5810698    1.5827195   0
    2  428.0374418  243.8607022  153.9052154  -0.5000   0.5000   0.5000   -1.5821712    1.5810698    1.5827195   0
    2  430.1537097  244.9313866  154.1370297  -0.5000   0.5000   0.5000   -1.5821712    1.5810698    1.5827195   0
    2  432.1459748  246.0289764  154.4743142  -0.5000   0.5000   0.5000   -1.5821712    1.5810698    1.5827195   0
    2  433.4229874  247.9837047  154.0366062  -0.5000   0.5000   0.5000   -1.5821712    1.5810698    1.5827195   0
    2  434.3517813  249.9507176  153.0351243  -0.5000   0.5000   0.5000   -1.5821712    1.5810698    1.5827195   0
    2  435.3539451  252.0428988  152.5511938  -0.5000   0.5000   0.5000   -1.5821712    1.5810698    1.5827195   0
    2  436.7344527  253.5671083  152.1753328  -0.5000   0.5000   0.5000   -1.5821712    1.5810698    1.5827195   0
    2  437.9694197  254.0042197  151.0145370  -0.5000   0.5000   0.5000   -1.5821712    1.5810698    1.5827195   0
    2  438.6963485  254.7588543  149.1590067  -0.5000   0.5000   0.5000   -1.5821712    1.5810698    1.5827195   0
    2  439.5237905  256.4570675  147.1693453  -0.5000   0.5000   0.5000   -1.5821712    1.5810698    1.5827195   0
    2  440.5418955  258.3585125  145.6005548  -0.5000   0.5000   0.5000   -1.5821712    1.5810698    1.5827195   0
    2  441.5352627  259.5267569  144.2351660  -0.5000   0.5000   0.5000   -1.5821712    1.5810698    1.5827195   0
    2  442.9623992  260.5099898  143.0797358  -0.5000   0.5000   0.5000   -1.5821712    1.5810698    1.5827195   0
    2  444.7215779  261.8924812  142.3651180  -0.5000   0.5000   0.5000   -1.5821712    1.5810698    1.5827195   0
    2  446.1215826  263.2917375  141.4566671  -0.5000   0.5000   0.5000   -1.5821712    1.5810698    1.5827195   0
    2  447.3501440  264.6191978  140.3030044  -0.5000   0.5000   0.5000   -1.5821712    1.5810698    1.5827195   0
    2  449.0258126  265.5891901  139.9267315  -0.5000   0.5000   0.5000   -1.5821712    1.5810698    1.5827195   0
    2  451.1965137  266.1552550  140.3570614  -0.5000   0.5000   0.5000   -1.5821712    1.5810698    1.5827195   0
    2  453.5015290  266.6102292  140.1469806  -0.5000   0.5000   0.5000   -1.5821712    1.5810698    1.5827195   0
    2  455.5727002  266.8705539  139.3237252  -0.5000   0.5000   0.5000   -1.5821712    1.5810698    1.5827195   0
    2  457.3943626  266.9099878  139.3481393  -0.5000   0.5000   0.5000   -1.5821712    1.5810698    1.5827195   0
    2  459.0466826  267.2627515  139.9127286  -0.5000   0.5000   0.5000   -1.5821712    1.5810698    1.5827195   0
    2  460.4880706  267.9233996  139.4703412  -0.5000   0.5000   0.5000   -1.5821712    1.5810698    1.5827195   0
    2  461.8430430  268.5925735  138.7339660  -0.5000   0.5000   0.5000   -1.5821712    1.5810698    1.5827195   0
    2  463.2274865  269.6934161  138.9936209  -0.5000   0.5000   0.5000   -1.5821712    1.5810698    1.5827195   0
    2  464.9331950  270.5310655  139.6261704  -0.5000   0.5000   0.5000   -1.5821712    1.5810698    1.5827195   0
    2  467.0244257  269.9706415  140.1566412  -0.5000   0.5000   0.5000   -1.5821712    1.5810698    1.5827195   0
    2  468.7221387  268.5204947  140.3554229  -0.5000   0.5000   0.5000   -1.5821712    1.5810698    1.5827195   0
    2  470.4191042  267.3692698  140.4700499  -0.5000   0.5000   0.5000   -1.5821712    1.5810698    1.5827195   0
    2  472.5901737  266.9779161  140.4378270  -0.5000   0.5000   0.5000   -1.5821712    1.5810698    1.5827195   0
    2  473.2686371  266.7932966  140.5192056  -0.5000   0.5000   0.5000   -1.5821712    1.5810698    1.5827195   0
    2  471.8221337  266.5250708  141.7208739  -0.5000   0.5000   0.5000   -1.5821712    1.5810698    1.5827195   0
    2  470.4176517  265.9093731  143.3281797  -0.5000   0.5000   0.5000   -1.5821712    1.5810698    1.5827195   0
    2  470.4803058  264.7025945  144.9278792  -0.5000   0.5000   0.5000   -1.5821712    1.5810698    1.5827195   0
    2  470.9827464  263.5081181  146.7500166  -0.5000   0.5000   0.5000   -1.5821712    1.5810698    1.5827195   0
    2  470.7439083  262.7875570  149.0430277  -0.5000   0.5000   0.5000   -1.5821712    1.5810698    1.5827195   0
    2  470.5293042  261.6601169  151.0338736  -0.5000   0.5000   0.5000   -1.5821712    1.5810698    1.5827195   0
    2  470.1626130  259.5736012  151.2557899  -0.5000   0.5000   0.5000   -1.5821712    1.5810698    1.5827195   0
    2  468.3918930  258.1512361  150.7401413  -0.5000   0.5000   0.5000   -1.5821712    1.5810698    1.5827195   0
    2  466.2787611  257.2758242  150.5168843  -0.5000   0.5000   0.5000   -1.5821712    1.5810698    1.5827195   0
    2  464.6526668  255.7658263  150.4202606  -0.5000   0.5000   0.5000   -1.5821712    1.5810698    1.5827195   0
    2  462.9095449  254.3858608  150.6871022  -0.5000   0.5000   0.5000   -1.5821712    1.5810698    1.5827195   0
    2  461.5346645  253.0079506  151.2999333  -0.5000   0.5000   0.5000   -1.5821712    1.5810698    1.5827195   0
    2  460.4612289  251.2295846  152.1471779  -0.5000   0.5000   0.5000   -1.5821712    1.5810698    1.5827195   0
    2  459.4005836  249.5708281  153.2563763  -0.5000   0.5000   0.5000   -1.5821712    1.5810698    1.5827195   0
    2  458.6266660  248.0638300  154.0748998  -0.5000   0.5000   0.5000   -1.5821712    1.5810698    1.5827195   0
    2  457.3874635  246.5421348  154.3910275  -0.5000   0.5000   0.5000   -1.5821712    1.5810698    1.5827195   0
    2  455.2803877  245.4899420  155.0655921  -0.5000   0.5000   0.5000   -1.5821712    1.5810698    1.5827195   0
    2  453.5934480  244.6059479  156.2638944  -0.5000   0.5000   0.5000   -1.5821712    1.5810698    1.5827195   0
    2  453.3721496  243.0420809  157.3549006  -0.5000   0.5000   0.5000   -1.5821712    1.5810698    1.5827195   0
    2  453.7298282  241.0927935  158.7996244  -0.5000   0.5000   0.5000   -1.5821712    1.5810698    1.5827195   0
    2  453.9891074  239.3644572  160.8716046  -0.5000   0.5000   0.5000   -1.5821712    1.5810698    1.5827195   0
    2  454.9769518  238.2716000  162.7254089  -0.5000   0.5000   0.5000   -1.5821712    1.5810698    1.5827195   0
    2  455.9723819  237.6230575  164.1995590  -0.5000   0.5000   0.5000   -1.5821712    1.5810698    1.5827195   0
    2  455.7292974  236.3088631  165.6009437  -0.5000   0.5000   0.5000   -1.5821712    1.5810698    1.5827195   0
    2  455.6678053  234.3647049  166.8938307  -0.5000   0.5000   0.5000   -1.5821712    1.5810698    1.5827195   0
    2  456.7580680  232.8666191  168.1777442  -0.5000   0.5000   0.5000   -1.5821712    1.5810698    1.5827195   0
    2  457.7287880  231.4498445  169.7002486  -0.5000   0.5000   0.5000   -1.5821712    1.5810698    1.5827195   0
    2  457.9480812  230.3594242  171.3281635  -0.5000   0.5000   0.5000   -1.5821712    1.5810698    1.5827195   0
    2  457.9009961  230.7340060  172.5677248  -0.5000   0.5000   0.5000   -1.5821712    1.5810698    1.5827195   0
    2  458.2298285  232.0842323  172.7569585  -0.5000   0.5000   0.5000   -1.5821712    1.5810698    1.5827195   0
    2  459.2164575  233.5540735  172.1368313  -0.5000   0.5000   0.5000   -1.5821712    1.5810698    1.5827195   0
    2  460.7298346  234.8999508  172.0547211  -0.5000   0.5000   0.5000   -1.5821712    1.5810698    1.5827195   0
    2  462.1948140  236.5815199  172.5992508  -0.5000   0.5000   0.5000   -1.5821712    1.5810698    1.5827195   0
    2  463.4006673  238.6047889  172.9891001  -0.5000   0.5000   0.5000   -1.5821712    1.5810698    1.5827195   0
    2  465.3020816  239.8095759  172.9020723  -0.5000   0.5000   0.5000   -1.5821712    1.5810698    1.5827195   0
    2  467.3790028  239.8270611  172.9941580  -0.5000   0.5000   0.5000   -1.5821712    1.5810698    1.5827195   0
    2  468.8158862  239.8028243  173.8691520  -0.5000   0.5000   0.5000   -1.5821712    1.5810698    1.5827195   0
    2  470.1432230  240.8745955  174.3987218  -0.5000   0.5000   0.5000   -1.5821712    1.5810698    1.5827195   0
    2  470.3899241  242.3595894  174.4456786  -0.5000   0.5000   0.5000   -1.5821712    1.5810698    1.5827195   0
    2  469.0005011  243.2778860  174.0573906  -0.5000   0.5000   0.5000   -1.5821712    1.5810698    1.5827195   0
    2  467.6334159  243.8242426  172.7301813  -0.5000   0.5000   0.5000   -1.5821712    1.5810698    1.5827195   0
    2  467.0689494  244.3947614  170.9472435  -0.5000   0.5000   0.5000   -1.5821712    1.5810698    1.5827195   0
    2  466.8925691  245.5808934  169.2402875  -0.5000   0.5000   0.5000   -1.5821712    1.5810698    1.5827195   0
    2  467.0004392  247.6315850  168.2538458  -0.5000   0.5000   0.5000   -1.5821712    1.5810698    1.5827195   0
    2  467.5290112  249.6301967  167.5482480  -0.5000   0.5000   0.5000   -1.5821712    1.5810698    1.5827195   0
    2  469.0074889  250.7809390  166.8075334  -0.5000   0.5000   0.5000   -1.5821712    1.5810698    1.5827195   0
    2  471.4576813  251.4733557  166.7523961  -0.5000   0.5000   0.5000   -1.5821712    1.5810698    1.5827195   0
    2  473.7346996  252.6193529  166.8316724  -0.5000   0.5000   0.5000   -1.5821712    1.5810698    1.5827195   0
    2  475.1800110  254.1287104  166.0560491  -0.5000   0.5000   0.5000   -1.5821712    1.5810698    1.5827195   0
    2  476.4452304  255.2091537  165.0512620  -0.5000   0.5000   0.5000   -1.5821712    1.5810698    1.5827195   0
    2  477.5413134  255.7124655  164.1744180  -0.5000   0.5000   0.5000   -1.5821712    1.5810698    1.5827195   0
    2  477.3864393  255.6321866  162.4875589  -0.5000   0.5000   0.5000   -1.5821712    1.5810698    1.5827195   0
    2  477.4578219  255.2094657  161.1237290  -0.5000   0.5000   0.5000   -1.5821712    1.5810698    1.5827195   0
    2  479.0762471  255.2456895  161.5185876  -0.5000   0.5000   0.5000   -1.5821712    1.5810698    1.5827195   0
    2  481.0169788  255.9533236  162.7064490  -0.5000   0.5000   0.5000   -1.5821712    1.5810698    1.5827195   0
    2  482.2428999  256.3457028  163.9578458  -0.5000   0.5000   0.5000   -1.5821712    1.5810698    1.5827195   0
    2  482.1877769  255.6847708  165.4183519  -0.5000   0.5000   0.5000   -1.5821712    1.5810698    1.5827195   0
    2  481.7230313  255.0094884  167.6330340  -0.5000   0.5000   0.5000   -1.5821712    1.5810698    1.5827195   0
    2  481.5321875  254.5097807  170.3577776  -0.5000   0.5000   0.5000   -1.5821712    1.5810698    1.5827195   0
    2  481.1447666  252.9510478  172.0280922  -0.5000   0.5000   0.5000   -1.5821712    1.5810698    1.5827195   0
    2  480.9977082  250.7454571  172.6929919  -0.5000   0.5000   0.5000   -1.5821712    1.5810698    1.5827195   0
    2  481.6369572  248.7361961  173.4382202  -0.5000   0.5000   0.5000   -1.5821712    1.5810698    1.5827195   0
    2  482.0372477  247.0252094  174.4472573  -0.5000   0.5000   0.5000   -1.5821712    1.5810698    1.5827195   0
    2  482.1011741  245.7314056  175.6168189  -0.5000   0.5000   0.5000   -1.5821712    1.5810698    1.5827195   0
    2  482.7067144  244.7094848  177.1357547  -0.5000   0.5000   0.5000   -1.5821712    1.5810698    1.5827195   0
    2  483.1775021  243.2063271  178.7307794  -0.5000   0.5000   0.5000   -1.5821712    1.5810698    1.5827195   0
    2  483.8436384  241.0324205  179.7586258  -0.5000   0.5000   0.5000   -1.5821712    1.5810698    1.5827195   0
    2  484.7890978  239.2712301  180.2085941  -0.5000   0.5000   0.5000   -1.5821712    1.5810698    1.5827195   0
    2  484.0688124  238.1286649  180.1069792  -0.5000   0.5000   0.5000   -1.5821712    1.5810698    1.5827195   0
    2  482.0679741  236.7792254  179.5968512  -0.5000   0.5000   0.5000   -1.5821712    1.5810698    1.5827195   0
    2  480.0774700  235.6941954  179.1201034  -0.5000   0.5000   0.5000   -1.5821712    1.5810698    1.5827195   0
    2  478.0083282  235.3630501  178.7756174  -0.5000   0.5000   0.5000   -1.5821712    1.5810698    1.5827195   0
    2  476.2600756  234.9085366  178.0979197  -0.5000   0.5000   0.5000   -1.5821712    1.5810698    1.5827195   0
    2  474.6819436  234.0160017  177.3893788  -0.5000   0.5000   0.5000   -1.5821712    1.5810698    1.5827195   0
    2  472.9985259  233.0718883  177.5745845  -0.5000   0.5000   0.5000   -1.5821712    1.5810698    1.5827195   0
    2  471.6445941  231.6583285  178.7731945  -0.5000   0.5000   0.5000   -1.5821712    1.5810698    1.5827195   0
    2  470.7996696  229.7160253  180.3247129  -0.5000   0.5000   0.5000   -1.5821712    1.5810698    1.5827195   0
    2  469.8696974  227.5601123  181.1622818  -0.5000   0.5000   0.5000   -1.5821712    1.5810698    1.5827195   0
    2  468.5929051  225.1244982  181.1987450  -0.5000   0.5000   0.5000   -1.5821712    1.5810698    1.5827195   0
    2  467.8078763  223.3099575  181.6599418  -0.5000   0.5000   0.5000   -1.5821712    1.5810698    1.5827195   0
    2  467.4935005  222.4197185  183.2780257  -0.5000   0.5000   0.5000   -1.5821712    1.5810698    1.5827195   0
    2  467.1451723  221.4374487  185.4776291  -0.5000   0.5000   0.5000   -1.5821712    1.5810698    1.5827195   0
    2  466.7638941  220.2095941  187.4049574  -0.5000   0.5000   0.5000   -1.5821712    1.5810698    1.5827195   0
    2  466.5828432  219.3018032  188.9840670  -0.5000   0.5000   0.5000   -1.5821712    1.5810698    1.5827195   0
    2  466.8580294  218.4350422  190.2744926  -0.5000   0.5000   0.5000   -1.5821712    1.5810698    1.5827195   0
    2  467.3818042  217.2900407  191.3492748  -0.5000   0.5000   0.5000   -1.5821712    1.5810698    1.5827195   0
    2  468.3440586  216.5037241  192.2825499  -0.5000   0.5000   0.5000   -1.5821712    1.5810698    1.5827195   0
    2  469.9297387  216.4856961  193.3349473  -0.5000   0.5000   0.5000   -1.5821712    1.5810698    1.5827195   0
    2  471.3307888  216.2552774  195.0766931  -0.5000   0.5000   0.5000   -1.5821712    1.5810698    1.5827195   0
    2  471.9149662  215.6099838  197.3673339  -0.5000   0.5000   0.5000   -1.5821712    1.5810698    1.5827195   0
    2  472.1621468  215.9865536  199.2424413  -0.5000   0.5000   0.5000   -1.5821712    1.5810698    1.5827195   0
    2  473.4970840  217.0374666  199.6579425  -0.5000   0.5000   0.5000   -1.5821712    1.5810698    1.5827195   0
    2  475.9507019  217.5815452  199.5469575  -0.5000   0.5000   0.5000   -1.5821712    1.5810698    1.5827195   0
    2  478.2669165  217.9188381  199.9749191  -0.5000   0.5000   0.5000   -1.5821712    1.5810698    1.5827195   0
    2  479.9342837  217.8003432  200.4536447  -0.5000   0.5000   0.5000   -1.5821712    1.5810698    1.5827195   0
    2  480.7553547  216.9144925  201.3156758  -0.5000   0.5000   0.5000   -1.5821712    1.5810698    1.5827195   0
    2  481.3253166  216.0043023  202.5069384  -0.5000   0.5000   0.5000   -1.5821712    1.5810698    1.5827195   0
    2  482.3787106  215.5201296  203.0928566  -0.5000   0.5000   0.5000   -1.5821712    1.5810698    1.5827195   0
    2  483.7264468  215.4329763  203.2965726  -0.5000   0.5000   0.5000   -1.5821712    1.5810698    1.5827195   0
    2  485.0773982  215.3532959  203.8728615  -0.5000   0.5000   0.5000   -1.5821712    1.5810698    1.5827195   0
    2  486.4700117  215.2888576  204.9665681  -0.5000   0.5000   0.5000   -1.5821712    1.5810698    1.5827195   0
    2  487.4940433  215.9424456  206.1937980  -0.5000   0.5000   0.5000   -1.5821712    1.5810698    1.5827195   0
    2  488.2434857  217.2551778  206.6889886  -0.5000   0.5000   0.5000   -1.5821712    1.5810698    1.5827195   0
    2  489.6250688  217.8347146  206.8904185  -0.5000   0.5000   0.5000   -1.5821712    1.5810698    1.5827195   0
    2  491.1466633  217.1220069  208.0465017  -0.5000   0.5000   0.5000   -1.5821712    1.5810698    1.5827195   0
    2  492.3216626  216.0834736  209.5920212  -0.5000   0.5000   0.5000   -1.5821712    1.5810698    1.5827195   0
    2  493.5202104  215.7614020  210.7789445  -0.5000   0.5000   0.5000   -1.5821712    1.5810698    1.5827195   0
    2  494.7944728  216.7010015  211.3812150  -0.5000   0.5000   0.5000   -1.5821712    1.5810698    1.5827195   0
    2  496.0987086  218.4714105  210.9840548  -0.5000   0.5000   0.5000   -1.5821712    1.5810698    1.5827195   0
    2  496.5785714  220.3191688  209.8690616  -0.5000   0.5000   0.5000   -1.5821712    1.5810698    1.5827195   0
    2  496.2606897  222.0089925  208.7932690  -0.5000   0.5000   0.5000   -1.5821712    1.5810698    1.5827195   0
    2  496.6829180  223.5660413  207.8282652  -0.5000   0.5000   0.5000   -1.5821712    1.5810698    1.5827195   0
    2  497.3963713  224.8149129  206.3201338  -0.5000   0.5000   0.5000   -1.5821712    1.5810698    1.5827195   0
    2  497.8224260  225.3825370  204.8053063  -0.5000   0.5000   0.5000   -1.5821712    1.5810698    1.5827195   0
    2  499.0770070  225.6176337  205.2717015  -0.5000   0.5000   0.5000   -1.5821712    1.5810698    1.5827195   0
    2  500.8953264  226.2028367  206.7470704  -0.5000   0.5000   0.5000   -1.5821712    1.5810698    1.5827195   0
    2  502.5904941  227.2574657  206.4895481  -0.5000   0.5000   0.5000   -1.5821712    1.5810698    1.5827195   0
    2  504.0638619  228.5661303  205.3041717  -0.5000   0.5000   0.5000   -1.5821712    1.5810698    1.5827195   0